<?xml version="1.0" encoding="UTF-8"?>

<!-- generated on Wed Nov 11 22:13:52 2020 by Eclipse SUMO GUI Version 7090c177
<configuration xmlns:xsi="http://www.w3.org/2001/XMLSchema-instance" xsi:noNamespaceSchemaLocation="http://sumo.dlr.de/xsd/sumoConfiguration.xsd">

    <input>
        <net-file value="configs/example/traffic.net.xml"/>
        <route-files value="configs/example/traffic.rou.xml"/>
        <additional-files value="configs/example/traffic.det.xml"/>
    </input>

    <output>
        <tripinfo-output value="configs/example/tripinfo.xml"/>
    </output>

</configuration>
-->

<detector xmlns:xsi="http://www.w3.org/2001/XMLSchema-instance" xsi:noNamespaceSchemaLocation="http://sumo.dlr.de/xsd/det_e1_file.xsd">
    <interval begin="0.00" end="30.00" id="0" nVehContrib="3" flow="360.00" occupancy="2.80" speed="9.64" harmonicMeanSpeed="9.64" length="2.70" nVehEntered="3"/>
    <interval begin="30.00" end="60.00" id="0" nVehContrib="6" flow="720.00" occupancy="17.92" speed="8.05" harmonicMeanSpeed="7.31" length="2.70" nVehEntered="7"/>
    <interval begin="60.00" end="90.00" id="0" nVehContrib="2" flow="240.00" occupancy="17.19" speed="1.00" harmonicMeanSpeed="0.65" length="2.70" nVehEntered="1"/>
    <interval begin="90.00" end="120.00" id="0" nVehContrib="0" flow="0.00" occupancy="0.00" speed="-1.00" harmonicMeanSpeed="-1.00" length="-1.00" nVehEntered="0"/>
    <interval begin="120.00" end="137.00" id="0" nVehContrib="0" flow="0.00" occupancy="0.00" speed="-1.00" harmonicMeanSpeed="-1.00" length="-1.00" nVehEntered="0"/>
</detector>
