<?xml version="1.0" encoding="UTF-8"?>

<!-- generated on Mon Oct 26 22:48:44 2020 by Eclipse SUMO Version 1.6.0
<configuration xmlns:xsi="http://www.w3.org/2001/XMLSchema-instance" xsi:noNamespaceSchemaLocation="http://sumo.dlr.de/xsd/sumoConfiguration.xsd">

    <input>
        <net-file value="configs/example/traffic.net.xml"/>
        <route-files value="configs/example/traffic.rou.xml"/>
        <additional-files value="configs/example/traffic.det.xml"/>
    </input>

    <output>
        <tripinfo-output value="configs/example/tripinfo.xml"/>
    </output>

</configuration>
-->

<tripinfos xmlns:xsi="http://www.w3.org/2001/XMLSchema-instance" xsi:noNamespaceSchemaLocation="http://sumo.dlr.de/xsd/tripinfo_file.xsd">
    <tripinfo id="right_0" depart="0.00" departLane="51o_0" departPos="2.95" departSpeed="0.00" departDelay="0.00" arrival="324.00" arrivalLane="52i_0" arrivalPos="10.00" arrivalSpeed="20.51" duration="324.00" routeLength="197.25" waitingTime="301.00" waitingCount="1" stopTime="0.00" timeLoss="317.01" rerouteNo="0" devices="tripinfo_right_0" vType="typeWE" speedFactor="1.06" vaporized=""/>
    <tripinfo id="left_1" depart="1.00" departLane="52o_0" departPos="2.95" departSpeed="0.00" departDelay="0.00" arrival="327.00" arrivalLane="51i_0" arrivalPos="10.00" arrivalSpeed="17.86" duration="326.00" routeLength="197.25" waitingTime="301.00" waitingCount="1" stopTime="0.00" timeLoss="317.89" rerouteNo="0" devices="tripinfo_left_1" vType="typeWE" speedFactor="0.94" vaporized=""/>
    <tripinfo id="southright_2" depart="1.00" departLane="53o_0" departPos="2.80" departSpeed="0.00" departDelay="0.00" arrival="327.00" arrivalLane="52i_0" arrivalPos="10.00" arrivalSpeed="19.39" duration="326.00" routeLength="197.40" waitingTime="301.00" waitingCount="1" stopTime="0.00" timeLoss="317.00" rerouteNo="0" devices="tripinfo_southright_2" vType="typeSE" speedFactor="1.01" vaporized=""/>
    <tripinfo id="upleft_3" depart="4.00" departLane="54o_0" departPos="2.80" departSpeed="0.00" departDelay="0.00" arrival="329.00" arrivalLane="51i_0" arrivalPos="10.00" arrivalSpeed="20.66" duration="325.00" routeLength="197.40" waitingTime="301.00" waitingCount="1" stopTime="0.00" timeLoss="317.03" rerouteNo="0" devices="tripinfo_upleft_3" vType="typeNW" speedFactor="1.08" vaporized=""/>
    <tripinfo id="southright_4" depart="5.00" departLane="53o_0" departPos="2.80" departSpeed="0.00" departDelay="0.00" arrival="630.00" arrivalLane="52i_0" arrivalPos="10.00" arrivalSpeed="19.88" duration="625.00" routeLength="197.40" waitingTime="599.00" waitingCount="2" stopTime="0.00" timeLoss="616.89" rerouteNo="0" devices="tripinfo_southright_4" vType="typeSE" speedFactor="1.03" vaporized=""/>
    <tripinfo id="right_7" depart="7.00" departLane="51o_0" departPos="2.95" departSpeed="0.00" departDelay="0.00" arrival="632.00" arrivalLane="52i_0" arrivalPos="10.00" arrivalSpeed="16.86" duration="625.00" routeLength="197.25" waitingTime="597.00" waitingCount="2" stopTime="0.00" timeLoss="614.88" rerouteNo="0" devices="tripinfo_right_7" vType="typeWE" speedFactor="0.89" vaporized=""/>
    <tripinfo id="left_21" depart="15.00" departLane="52o_0" departPos="2.95" departSpeed="0.00" departDelay="0.00" arrival="632.00" arrivalLane="51i_0" arrivalPos="10.00" arrivalSpeed="19.28" duration="617.00" routeLength="197.25" waitingTime="589.00" waitingCount="2" stopTime="0.00" timeLoss="608.88" rerouteNo="0" devices="tripinfo_left_21" vType="typeWE" speedFactor="1.01" vaporized=""/>
    <tripinfo id="upleft_6" depart="8.00" departLane="54o_0" departPos="2.80" departSpeed="0.00" departDelay="2.00" arrival="634.00" arrivalLane="51i_0" arrivalPos="10.00" arrivalSpeed="20.31" duration="626.00" routeLength="197.40" waitingTime="598.00" waitingCount="2" stopTime="0.00" timeLoss="616.96" rerouteNo="0" devices="tripinfo_upleft_6" vType="typeNW" speedFactor="1.05" vaporized=""/>
    <tripinfo id="up_5" depart="8.00" departLane="53o_0" departPos="2.80" departSpeed="0.00" departDelay="3.00" arrival="935.00" arrivalLane="54i_0" arrivalPos="10.00" arrivalSpeed="15.97" duration="927.00" routeLength="197.40" waitingTime="896.00" waitingCount="3" stopTime="0.00" timeLoss="918.78" rerouteNo="0" devices="tripinfo_up_5" vType="typeSN1" speedFactor="0.83" vaporized=""/>
    <tripinfo id="right_11" depart="10.00" departLane="51o_0" departPos="2.95" departSpeed="0.00" departDelay="0.00" arrival="936.00" arrivalLane="52i_0" arrivalPos="10.00" arrivalSpeed="19.86" duration="926.00" routeLength="197.25" waitingTime="890.00" waitingCount="3" stopTime="0.00" timeLoss="917.97" rerouteNo="0" devices="tripinfo_right_11" vType="typeWE" speedFactor="1.03" vaporized=""/>
    <tripinfo id="upleft_10" depart="12.00" departLane="54o_0" departPos="2.80" departSpeed="0.00" departDelay="3.00" arrival="937.00" arrivalLane="51i_0" arrivalPos="10.00" arrivalSpeed="21.15" duration="925.00" routeLength="197.40" waitingTime="893.00" waitingCount="3" stopTime="0.00" timeLoss="917.98" rerouteNo="0" devices="tripinfo_upleft_10" vType="typeNW" speedFactor="1.09" vaporized=""/>
    <tripinfo id="left_27" depart="19.00" departLane="52o_0" departPos="2.95" departSpeed="0.00" departDelay="0.00" arrival="940.00" arrivalLane="51i_0" arrivalPos="10.00" arrivalSpeed="18.39" duration="921.00" routeLength="197.25" waitingTime="887.00" waitingCount="3" stopTime="0.00" timeLoss="911.03" rerouteNo="0" devices="tripinfo_left_27" vType="typeWE" speedFactor="0.95" vaporized=""/>
    <tripinfo id="southright_8" depart="12.00" departLane="53o_0" departPos="2.80" departSpeed="0.00" departDelay="5.00" arrival="1241.00" arrivalLane="52i_0" arrivalPos="10.00" arrivalSpeed="17.88" duration="1229.00" routeLength="197.40" waitingTime="1192.00" waitingCount="4" stopTime="0.00" timeLoss="1220.77" rerouteNo="0" devices="tripinfo_southright_8" vType="typeSE" speedFactor="0.94" vaporized=""/>
    <tripinfo id="upleft_13" depart="16.00" departLane="54o_0" departPos="2.80" departSpeed="0.00" departDelay="6.00" arrival="1242.00" arrivalLane="51i_0" arrivalPos="10.00" arrivalSpeed="21.47" duration="1226.00" routeLength="197.40" waitingTime="1192.00" waitingCount="4" stopTime="0.00" timeLoss="1218.89" rerouteNo="0" devices="tripinfo_upleft_13" vType="typeNW" speedFactor="1.12" vaporized=""/>
    <tripinfo id="right_18" depart="14.00" departLane="51o_0" departPos="2.95" departSpeed="0.00" departDelay="1.00" arrival="1243.00" arrivalLane="52i_0" arrivalPos="10.00" arrivalSpeed="18.02" duration="1229.00" routeLength="197.25" waitingTime="1190.00" waitingCount="4" stopTime="0.00" timeLoss="1218.99" rerouteNo="0" devices="tripinfo_right_18" vType="typeWE" speedFactor="0.94" vaporized=""/>
    <tripinfo id="left_29" depart="22.00" departLane="52o_0" departPos="2.95" departSpeed="0.00" departDelay="2.00" arrival="1245.00" arrivalLane="51i_0" arrivalPos="10.00" arrivalSpeed="17.82" duration="1223.00" routeLength="197.25" waitingTime="1181.00" waitingCount="4" stopTime="0.00" timeLoss="1212.87" rerouteNo="0" devices="tripinfo_left_29" vType="typeWE" speedFactor="0.93" vaporized=""/>
    <tripinfo id="up_9" depart="15.00" departLane="53o_0" departPos="2.80" departSpeed="0.00" departDelay="7.00" arrival="1545.00" arrivalLane="54i_0" arrivalPos="10.00" arrivalSpeed="16.43" duration="1530.00" routeLength="197.40" waitingTime="1490.00" waitingCount="5" stopTime="0.00" timeLoss="1521.82" rerouteNo="0" devices="tripinfo_up_9" vType="typeSN1" speedFactor="0.86" vaporized=""/>
    <tripinfo id="right_26" depart="19.00" departLane="51o_0" departPos="2.95" departSpeed="0.00" departDelay="0.00" arrival="1546.00" arrivalLane="52i_0" arrivalPos="10.00" arrivalSpeed="17.80" duration="1527.00" routeLength="197.25" waitingTime="1486.00" waitingCount="5" stopTime="0.00" timeLoss="1518.80" rerouteNo="0" devices="tripinfo_right_26" vType="typeWE" speedFactor="0.92" vaporized=""/>
    <tripinfo id="upleft_16" depart="19.00" departLane="54o_0" departPos="2.80" departSpeed="0.00" departDelay="8.00" arrival="1547.00" arrivalLane="51i_0" arrivalPos="10.00" arrivalSpeed="16.74" duration="1528.00" routeLength="197.40" waitingTime="1487.00" waitingCount="5" stopTime="0.00" timeLoss="1519.85" rerouteNo="0" devices="tripinfo_upleft_16" vType="typeNW" speedFactor="0.88" vaporized=""/>
    <tripinfo id="left_30" depart="26.00" departLane="52o_0" departPos="2.95" departSpeed="0.00" departDelay="5.00" arrival="1549.00" arrivalLane="51i_0" arrivalPos="10.00" arrivalSpeed="22.57" duration="1523.00" routeLength="197.25" waitingTime="1477.00" waitingCount="5" stopTime="0.00" timeLoss="1514.19" rerouteNo="0" devices="tripinfo_left_30" vType="typeWE" speedFactor="1.18" vaporized=""/>
