<?xml version="1.0" encoding="UTF-8"?>

<!-- generated on Tue Nov 10 09:58:52 2020 by Eclipse SUMO Version 1.6.0
<configuration xmlns:xsi="http://www.w3.org/2001/XMLSchema-instance" xsi:noNamespaceSchemaLocation="http://sumo.dlr.de/xsd/sumoConfiguration.xsd">

    <input>
        <net-file value="configs/example/traffic.net.xml"/>
        <route-files value="configs/example/traffic.rou.xml"/>
        <additional-files value="configs/example/traffic.det.xml"/>
    </input>

    <output>
        <tripinfo-output value="configs/example/tripinfo.xml"/>
    </output>

</configuration>
-->

<tripinfos xmlns:xsi="http://www.w3.org/2001/XMLSchema-instance" xsi:noNamespaceSchemaLocation="http://sumo.dlr.de/xsd/tripinfo_file.xsd">
    <tripinfo id="southright_2" depart="1.00" departLane="53o_0" departPos="2.80" departSpeed="0.00" departDelay="0.00" arrival="28.00" arrivalLane="52i_0" arrivalPos="10.00" arrivalSpeed="16.22" duration="27.00" routeLength="206.43" waitingTime="0.00" waitingCount="0" stopTime="0.00" timeLoss="18.84" rerouteNo="0" devices="tripinfo_southright_2" vType="typeSE" speedFactor="1.01" vaporized=""/>
    <tripinfo id="upleft_3" depart="4.00" departLane="54o_0" departPos="2.80" departSpeed="0.00" departDelay="0.00" arrival="31.00" arrivalLane="51i_0" arrivalPos="10.00" arrivalSpeed="15.51" duration="27.00" routeLength="206.43" waitingTime="0.00" waitingCount="0" stopTime="0.00" timeLoss="19.01" rerouteNo="0" devices="tripinfo_upleft_3" vType="typeNW" speedFactor="1.08" vaporized=""/>
    <tripinfo id="southright_4" depart="5.00" departLane="53o_0" departPos="2.80" departSpeed="0.00" departDelay="0.00" arrival="31.00" arrivalLane="52i_0" arrivalPos="10.00" arrivalSpeed="16.25" duration="26.00" routeLength="206.43" waitingTime="0.00" waitingCount="0" stopTime="0.00" timeLoss="17.98" rerouteNo="0" devices="tripinfo_southright_4" vType="typeSE" speedFactor="1.03" vaporized=""/>
    <tripinfo id="up_5" depart="8.00" departLane="53o_0" departPos="2.80" departSpeed="0.00" departDelay="3.00" arrival="34.00" arrivalLane="54i_0" arrivalPos="10.00" arrivalSpeed="15.97" duration="26.00" routeLength="211.80" waitingTime="0.00" waitingCount="0" stopTime="0.00" timeLoss="17.94" rerouteNo="0" devices="tripinfo_up_5" vType="typeSN1" speedFactor="0.83" vaporized=""/>
    <tripinfo id="upleft_6" depart="8.00" departLane="54o_0" departPos="2.80" departSpeed="0.00" departDelay="2.00" arrival="35.00" arrivalLane="51i_0" arrivalPos="10.00" arrivalSpeed="15.32" duration="27.00" routeLength="206.43" waitingTime="0.00" waitingCount="0" stopTime="0.00" timeLoss="19.09" rerouteNo="0" devices="tripinfo_upleft_6" vType="typeNW" speedFactor="1.05" vaporized=""/>
    <tripinfo id="southright_8" depart="12.00" departLane="53o_0" departPos="2.80" departSpeed="0.00" departDelay="5.00" arrival="38.00" arrivalLane="52i_0" arrivalPos="10.00" arrivalSpeed="16.07" duration="26.00" routeLength="206.43" waitingTime="0.00" waitingCount="0" stopTime="0.00" timeLoss="17.60" rerouteNo="0" devices="tripinfo_southright_8" vType="typeSE" speedFactor="0.94" vaporized=""/>
    <tripinfo id="upleft_10" depart="12.00" departLane="54o_0" departPos="2.80" departSpeed="0.00" departDelay="3.00" arrival="39.00" arrivalLane="51i_0" arrivalPos="10.00" arrivalSpeed="15.58" duration="27.00" routeLength="206.43" waitingTime="0.00" waitingCount="0" stopTime="0.00" timeLoss="18.95" rerouteNo="0" devices="tripinfo_upleft_10" vType="typeNW" speedFactor="1.09" vaporized=""/>
    <tripinfo id="upleft_13" depart="16.00" departLane="54o_0" departPos="2.80" departSpeed="0.00" departDelay="6.00" arrival="41.00" arrivalLane="51i_0" arrivalPos="10.00" arrivalSpeed="16.87" duration="25.00" routeLength="206.43" waitingTime="0.00" waitingCount="0" stopTime="0.00" timeLoss="17.04" rerouteNo="0" devices="tripinfo_upleft_13" vType="typeNW" speedFactor="1.12" vaporized=""/>
    <tripinfo id="up_9" depart="15.00" departLane="53o_0" departPos="2.80" departSpeed="0.00" departDelay="7.00" arrival="42.00" arrivalLane="54i_0" arrivalPos="10.00" arrivalSpeed="15.88" duration="27.00" routeLength="211.80" waitingTime="0.00" waitingCount="0" stopTime="0.00" timeLoss="19.03" rerouteNo="0" devices="tripinfo_up_9" vType="typeSN1" speedFactor="0.86" vaporized=""/>
    <tripinfo id="southright_12" depart="19.00" departLane="53o_0" departPos="2.80" departSpeed="0.00" departDelay="9.00" arrival="46.00" arrivalLane="52i_0" arrivalPos="10.00" arrivalSpeed="15.76" duration="27.00" routeLength="206.43" waitingTime="1.00" waitingCount="1" stopTime="0.00" timeLoss="18.86" rerouteNo="0" devices="tripinfo_southright_12" vType="typeSE" speedFactor="1.05" vaporized=""/>
    <tripinfo id="upleft_16" depart="19.00" departLane="54o_0" departPos="2.80" departSpeed="0.00" departDelay="8.00" arrival="47.00" arrivalLane="51i_0" arrivalPos="10.00" arrivalSpeed="15.36" duration="28.00" routeLength="206.43" waitingTime="0.00" waitingCount="0" stopTime="0.00" timeLoss="20.21" rerouteNo="0" devices="tripinfo_upleft_16" vType="typeNW" speedFactor="0.88" vaporized=""/>
    <tripinfo id="up_14" depart="23.00" departLane="53o_0" departPos="2.80" departSpeed="0.00" departDelay="13.00" arrival="50.00" arrivalLane="54i_0" arrivalPos="10.00" arrivalSpeed="16.74" duration="27.00" routeLength="211.80" waitingTime="1.00" waitingCount="1" stopTime="0.00" timeLoss="18.63" rerouteNo="0" devices="tripinfo_up_14" vType="typeSN1" speedFactor="0.99" vaporized=""/>
    <tripinfo id="down_17" depart="24.00" departLane="54o_0" departPos="2.80" departSpeed="0.00" departDelay="12.00" arrival="51.00" arrivalLane="53i_0" arrivalPos="10.00" arrivalSpeed="15.36" duration="27.00" routeLength="211.80" waitingTime="0.00" waitingCount="0" stopTime="0.00" timeLoss="19.10" rerouteNo="0" devices="tripinfo_down_17" vType="typeNS" speedFactor="0.94" vaporized=""/>
    <tripinfo id="southright_15" depart="28.00" departLane="53o_0" departPos="2.80" departSpeed="0.00" departDelay="17.00" arrival="54.00" arrivalLane="52i_0" arrivalPos="10.00" arrivalSpeed="15.79" duration="26.00" routeLength="206.43" waitingTime="0.00" waitingCount="0" stopTime="0.00" timeLoss="18.18" rerouteNo="0" devices="tripinfo_southright_15" vType="typeSE" speedFactor="0.93" vaporized=""/>
    <tripinfo id="down_20" depart="27.00" departLane="54o_0" departPos="2.80" departSpeed="0.00" departDelay="13.00" arrival="54.00" arrivalLane="53i_0" arrivalPos="10.00" arrivalSpeed="16.06" duration="27.00" routeLength="211.80" waitingTime="0.00" waitingCount="0" stopTime="0.00" timeLoss="18.75" rerouteNo="0" devices="tripinfo_down_20" vType="typeNS" speedFactor="1.02" vaporized=""/>
    <tripinfo id="southright_19" depart="31.00" departLane="53o_0" departPos="2.80" departSpeed="0.00" departDelay="17.00" arrival="58.00" arrivalLane="52i_0" arrivalPos="10.00" arrivalSpeed="15.32" duration="27.00" routeLength="206.43" waitingTime="0.00" waitingCount="0" stopTime="0.00" timeLoss="19.58" rerouteNo="0" devices="tripinfo_southright_19" vType="typeSE" speedFactor="1.16" vaporized=""/>
    <tripinfo id="down_22" depart="31.00" departLane="54o_0" departPos="2.80" departSpeed="0.00" departDelay="16.00" arrival="58.00" arrivalLane="53i_0" arrivalPos="10.00" arrivalSpeed="16.23" duration="27.00" routeLength="211.80" waitingTime="0.00" waitingCount="0" stopTime="0.00" timeLoss="18.71" rerouteNo="0" devices="tripinfo_down_22" vType="typeNS" speedFactor="0.98" vaporized=""/>
    <tripinfo id="down_23" depart="35.00" departLane="54o_0" departPos="2.80" departSpeed="0.00" departDelay="19.00" arrival="62.00" arrivalLane="53i_0" arrivalPos="10.00" arrivalSpeed="16.23" duration="27.00" routeLength="211.80" waitingTime="0.00" waitingCount="0" stopTime="0.00" timeLoss="18.21" rerouteNo="0" devices="tripinfo_down_23" vType="typeNS" speedFactor="0.89" vaporized=""/>
    <tripinfo id="southright_24" depart="35.00" departLane="53o_0" departPos="2.80" departSpeed="0.00" departDelay="18.00" arrival="62.00" arrivalLane="52i_0" arrivalPos="10.00" arrivalSpeed="15.64" duration="27.00" routeLength="206.43" waitingTime="0.00" waitingCount="0" stopTime="0.00" timeLoss="18.57" rerouteNo="0" devices="tripinfo_southright_24" vType="typeSE" speedFactor="0.83" vaporized=""/>
    <tripinfo id="upleft_34" depart="39.00" departLane="54o_0" departPos="2.80" departSpeed="0.00" departDelay="12.00" arrival="66.00" arrivalLane="51i_0" arrivalPos="10.00" arrivalSpeed="16.06" duration="27.00" routeLength="206.43" waitingTime="0.00" waitingCount="0" stopTime="0.00" timeLoss="18.76" rerouteNo="0" devices="tripinfo_upleft_34" vType="typeNW" speedFactor="0.99" vaporized=""/>
    <tripinfo id="up_25" depart="40.00" departLane="53o_0" departPos="2.80" departSpeed="0.00" departDelay="22.00" arrival="67.00" arrivalLane="54i_0" arrivalPos="10.00" arrivalSpeed="15.68" duration="27.00" routeLength="211.80" waitingTime="0.00" waitingCount="0" stopTime="0.00" timeLoss="18.32" rerouteNo="0" devices="tripinfo_up_25" vType="typeSN1" speedFactor="0.87" vaporized=""/>
    <tripinfo id="southright_28" depart="43.00" departLane="53o_0" departPos="2.80" departSpeed="0.00" departDelay="24.00" arrival="70.00" arrivalLane="52i_0" arrivalPos="10.00" arrivalSpeed="15.42" duration="27.00" routeLength="206.43" waitingTime="0.00" waitingCount="0" stopTime="0.00" timeLoss="19.33" rerouteNo="0" devices="tripinfo_southright_28" vType="typeSE" speedFactor="1.13" vaporized=""/>
    <tripinfo id="down_35" depart="43.00" departLane="54o_0" departPos="2.80" departSpeed="0.00" departDelay="16.00" arrival="70.00" arrivalLane="53i_0" arrivalPos="10.00" arrivalSpeed="16.24" duration="27.00" routeLength="211.80" waitingTime="0.00" waitingCount="0" stopTime="0.00" timeLoss="18.63" rerouteNo="0" devices="tripinfo_down_35" vType="typeNS" speedFactor="1.02" vaporized=""/>
    <tripinfo id="right_0" depart="0.00" departLane="51o_0" departPos="2.95" departSpeed="0.00" departDelay="0.00" arrival="86.00" arrivalLane="52i_0" arrivalPos="10.00" arrivalSpeed="11.96" duration="86.00" routeLength="211.65" waitingTime="47.00" waitingCount="1" stopTime="0.00" timeLoss="77.99" rerouteNo="0" devices="tripinfo_right_0" vType="typeWE" speedFactor="1.06" vaporized=""/>
    <tripinfo id="left_1" depart="1.00" departLane="52o_0" departPos="2.95" departSpeed="0.00" departDelay="0.00" arrival="86.00" arrivalLane="51i_0" arrivalPos="10.00" arrivalSpeed="12.26" duration="85.00" routeLength="211.65" waitingTime="45.00" waitingCount="1" stopTime="0.00" timeLoss="76.79" rerouteNo="0" devices="tripinfo_left_1" vType="typeWE" speedFactor="0.94" vaporized=""/>
    <tripinfo id="right_7" depart="7.00" departLane="51o_0" departPos="2.95" departSpeed="0.00" departDelay="0.00" arrival="88.00" arrivalLane="52i_0" arrivalPos="10.00" arrivalSpeed="11.65" duration="81.00" routeLength="211.65" waitingTime="43.00" waitingCount="1" stopTime="0.00" timeLoss="72.79" rerouteNo="0" devices="tripinfo_right_7" vType="typeWE" speedFactor="0.89" vaporized=""/>
    <tripinfo id="left_21" depart="15.00" departLane="52o_0" departPos="2.95" departSpeed="0.00" departDelay="0.00" arrival="88.00" arrivalLane="51i_0" arrivalPos="10.00" arrivalSpeed="12.31" duration="73.00" routeLength="211.65" waitingTime="33.00" waitingCount="1" stopTime="0.00" timeLoss="64.74" rerouteNo="0" devices="tripinfo_left_21" vType="typeWE" speedFactor="1.01" vaporized=""/>
    <tripinfo id="left_27" depart="19.00" departLane="52o_0" departPos="2.95" departSpeed="0.00" departDelay="0.00" arrival="89.00" arrivalLane="51i_0" arrivalPos="10.00" arrivalSpeed="11.96" duration="70.00" routeLength="211.65" waitingTime="31.00" waitingCount="1" stopTime="0.00" timeLoss="62.40" rerouteNo="0" devices="tripinfo_left_27" vType="typeWE" speedFactor="0.95" vaporized=""/>
    <tripinfo id="right_11" depart="10.00" departLane="51o_0" departPos="2.95" departSpeed="0.00" departDelay="0.00" arrival="90.00" arrivalLane="52i_0" arrivalPos="10.00" arrivalSpeed="11.67" duration="80.00" routeLength="211.65" waitingTime="38.00" waitingCount="1" stopTime="0.00" timeLoss="72.16" rerouteNo="0" devices="tripinfo_right_11" vType="typeWE" speedFactor="1.03" vaporized=""/>
    <tripinfo id="left_29" depart="22.00" departLane="52o_0" departPos="2.95" departSpeed="0.00" departDelay="2.00" arrival="91.00" arrivalLane="51i_0" arrivalPos="10.00" arrivalSpeed="12.18" duration="69.00" routeLength="211.65" waitingTime="29.00" waitingCount="1" stopTime="0.00" timeLoss="60.83" rerouteNo="0" devices="tripinfo_left_29" vType="typeWE" speedFactor="0.93" vaporized=""/>
    <tripinfo id="right_18" depart="14.00" departLane="51o_0" departPos="2.95" departSpeed="0.00" departDelay="1.00" arrival="92.00" arrivalLane="52i_0" arrivalPos="10.00" arrivalSpeed="12.25" duration="78.00" routeLength="211.65" waitingTime="37.00" waitingCount="1" stopTime="0.00" timeLoss="69.81" rerouteNo="0" devices="tripinfo_right_18" vType="typeWE" speedFactor="0.94" vaporized=""/>
    <tripinfo id="right_26" depart="19.00" departLane="51o_0" departPos="2.95" departSpeed="0.00" departDelay="0.00" arrival="93.00" arrivalLane="52i_0" arrivalPos="10.00" arrivalSpeed="11.79" duration="74.00" routeLength="211.65" waitingTime="34.00" waitingCount="1" stopTime="0.00" timeLoss="65.92" rerouteNo="0" devices="tripinfo_right_26" vType="typeWE" speedFactor="0.92" vaporized=""/>
    <tripinfo id="left_30" depart="28.00" departLane="52o_0" departPos="2.95" departSpeed="0.00" departDelay="7.00" arrival="93.00" arrivalLane="51i_0" arrivalPos="10.00" arrivalSpeed="11.79" duration="65.00" routeLength="211.65" waitingTime="24.00" waitingCount="1" stopTime="0.00" timeLoss="57.36" rerouteNo="0" devices="tripinfo_left_30" vType="typeWE" speedFactor="1.18" vaporized=""/>
    <tripinfo id="left_31" depart="31.00" departLane="52o_0" departPos="2.95" departSpeed="0.00" departDelay="9.00" arrival="95.00" arrivalLane="51i_0" arrivalPos="10.00" arrivalSpeed="12.55" duration="64.00" routeLength="211.65" waitingTime="22.00" waitingCount="1" stopTime="0.00" timeLoss="56.04" rerouteNo="0" devices="tripinfo_left_31" vType="typeWE" speedFactor="1.15" vaporized=""/>
    <tripinfo id="right_32" depart="24.00" departLane="51o_0" departPos="2.95" departSpeed="0.00" departDelay="0.00" arrival="95.00" arrivalLane="52i_0" arrivalPos="10.00" arrivalSpeed="12.53" duration="71.00" routeLength="211.65" waitingTime="29.00" waitingCount="1" stopTime="0.00" timeLoss="62.78" rerouteNo="0" devices="tripinfo_right_32" vType="typeWE" speedFactor="1.01" vaporized=""/>
    <tripinfo id="right_33" depart="28.00" departLane="51o_0" departPos="2.95" departSpeed="0.00" departDelay="1.00" arrival="96.00" arrivalLane="52i_0" arrivalPos="10.00" arrivalSpeed="11.79" duration="68.00" routeLength="211.65" waitingTime="27.00" waitingCount="1" stopTime="0.00" timeLoss="60.32" rerouteNo="0" devices="tripinfo_right_33" vType="typeWE" speedFactor="1.17" vaporized=""/>
</tripinfos>
