<?xml version="1.0" encoding="UTF-8"?>

<!-- generated on Wed Nov 11 22:13:52 2020 by Eclipse SUMO GUI Version 7090c177
<configuration xmlns:xsi="http://www.w3.org/2001/XMLSchema-instance" xsi:noNamespaceSchemaLocation="http://sumo.dlr.de/xsd/sumoConfiguration.xsd">

    <input>
        <net-file value="configs/example/traffic.net.xml"/>
        <route-files value="configs/example/traffic.rou.xml"/>
        <additional-files value="configs/example/traffic.det.xml"/>
    </input>

    <output>
        <tripinfo-output value="configs/example/tripinfo.xml"/>
    </output>

</configuration>
-->

<tripinfos xmlns:xsi="http://www.w3.org/2001/XMLSchema-instance" xsi:noNamespaceSchemaLocation="http://sumo.dlr.de/xsd/tripinfo_file.xsd">
    <tripinfo id="southright_2" depart="1.00" departLane="53o_0" departPos="2.80" departSpeed="0.00" departDelay="0.00" arrival="28.00" arrivalLane="52i_0" arrivalPos="10.00" arrivalSpeed="16.22" duration="27.00" routeLength="206.43" waitingTime="0.00" waitingCount="0" stopTime="0.00" timeLoss="18.84" rerouteNo="0" devices="tripinfo_southright_2" vType="typeSE" speedFactor="1.01" vaporized=""/>
    <tripinfo id="upleft_3" depart="4.00" departLane="54o_0" departPos="2.80" departSpeed="0.00" departDelay="0.00" arrival="31.00" arrivalLane="51i_0" arrivalPos="10.00" arrivalSpeed="15.51" duration="27.00" routeLength="206.43" waitingTime="0.00" waitingCount="0" stopTime="0.00" timeLoss="19.01" rerouteNo="0" devices="tripinfo_upleft_3" vType="typeNW" speedFactor="1.08" vaporized=""/>
    <tripinfo id="southright_4" depart="5.00" departLane="53o_0" departPos="2.80" departSpeed="0.00" departDelay="0.00" arrival="31.00" arrivalLane="52i_0" arrivalPos="10.00" arrivalSpeed="16.25" duration="26.00" routeLength="206.43" waitingTime="0.00" waitingCount="0" stopTime="0.00" timeLoss="17.98" rerouteNo="0" devices="tripinfo_southright_4" vType="typeSE" speedFactor="1.03" vaporized=""/>
    <tripinfo id="up_5" depart="8.00" departLane="53o_0" departPos="2.80" departSpeed="0.00" departDelay="3.00" arrival="34.00" arrivalLane="54i_0" arrivalPos="10.00" arrivalSpeed="15.97" duration="26.00" routeLength="211.80" waitingTime="0.00" waitingCount="0" stopTime="0.00" timeLoss="17.94" rerouteNo="0" devices="tripinfo_up_5" vType="typeSN1" speedFactor="0.83" vaporized=""/>
    <tripinfo id="upleft_6" depart="8.00" departLane="54o_0" departPos="2.80" departSpeed="0.00" departDelay="2.00" arrival="35.00" arrivalLane="51i_0" arrivalPos="10.00" arrivalSpeed="15.32" duration="27.00" routeLength="206.43" waitingTime="0.00" waitingCount="0" stopTime="0.00" timeLoss="19.09" rerouteNo="0" devices="tripinfo_upleft_6" vType="typeNW" speedFactor="1.05" vaporized=""/>
    <tripinfo id="southright_8" depart="12.00" departLane="53o_0" departPos="2.80" departSpeed="0.00" departDelay="5.00" arrival="38.00" arrivalLane="52i_0" arrivalPos="10.00" arrivalSpeed="16.07" duration="26.00" routeLength="206.43" waitingTime="0.00" waitingCount="0" stopTime="0.00" timeLoss="17.60" rerouteNo="0" devices="tripinfo_southright_8" vType="typeSE" speedFactor="0.94" vaporized=""/>
    <tripinfo id="upleft_10" depart="12.00" departLane="54o_0" departPos="2.80" departSpeed="0.00" departDelay="3.00" arrival="39.00" arrivalLane="51i_0" arrivalPos="10.00" arrivalSpeed="15.58" duration="27.00" routeLength="206.43" waitingTime="0.00" waitingCount="0" stopTime="0.00" timeLoss="18.95" rerouteNo="0" devices="tripinfo_upleft_10" vType="typeNW" speedFactor="1.09" vaporized=""/>
    <tripinfo id="upleft_13" depart="16.00" departLane="54o_0" departPos="2.80" departSpeed="0.00" departDelay="6.00" arrival="41.00" arrivalLane="51i_0" arrivalPos="10.00" arrivalSpeed="16.87" duration="25.00" routeLength="206.43" waitingTime="0.00" waitingCount="0" stopTime="0.00" timeLoss="17.04" rerouteNo="0" devices="tripinfo_upleft_13" vType="typeNW" speedFactor="1.12" vaporized=""/>
    <tripinfo id="up_9" depart="15.00" departLane="53o_0" departPos="2.80" departSpeed="0.00" departDelay="7.00" arrival="42.00" arrivalLane="54i_0" arrivalPos="10.00" arrivalSpeed="15.88" duration="27.00" routeLength="211.80" waitingTime="0.00" waitingCount="0" stopTime="0.00" timeLoss="19.03" rerouteNo="0" devices="tripinfo_up_9" vType="typeSN1" speedFactor="0.86" vaporized=""/>
    <tripinfo id="right_0" depart="0.00" departLane="51o_0" departPos="2.95" departSpeed="0.00" departDelay="0.00" arrival="57.00" arrivalLane="52i_0" arrivalPos="10.00" arrivalSpeed="11.87" duration="57.00" routeLength="211.65" waitingTime="19.00" waitingCount="1" stopTime="0.00" timeLoss="49.22" rerouteNo="0" devices="tripinfo_right_0" vType="typeWE" speedFactor="1.06" vaporized=""/>
    <tripinfo id="left_1" depart="1.00" departLane="52o_0" departPos="2.95" departSpeed="0.00" departDelay="0.00" arrival="58.00" arrivalLane="51i_0" arrivalPos="10.00" arrivalSpeed="11.86" duration="57.00" routeLength="211.65" waitingTime="17.00" waitingCount="1" stopTime="0.00" timeLoss="48.87" rerouteNo="0" devices="tripinfo_left_1" vType="typeWE" speedFactor="0.94" vaporized=""/>
    <tripinfo id="left_21" depart="15.00" departLane="52o_0" departPos="2.95" departSpeed="0.00" departDelay="0.00" arrival="59.00" arrivalLane="51i_0" arrivalPos="10.00" arrivalSpeed="11.77" duration="44.00" routeLength="211.65" waitingTime="5.00" waitingCount="1" stopTime="0.00" timeLoss="36.35" rerouteNo="0" devices="tripinfo_left_21" vType="typeWE" speedFactor="1.01" vaporized=""/>
    <tripinfo id="right_7" depart="7.00" departLane="51o_0" departPos="2.95" departSpeed="0.00" departDelay="0.00" arrival="60.00" arrivalLane="52i_0" arrivalPos="10.00" arrivalSpeed="11.62" duration="53.00" routeLength="211.65" waitingTime="15.00" waitingCount="1" stopTime="0.00" timeLoss="44.67" rerouteNo="0" devices="tripinfo_right_7" vType="typeWE" speedFactor="0.89" vaporized=""/>
    <tripinfo id="southright_12" depart="19.00" departLane="53o_0" departPos="2.80" departSpeed="0.00" departDelay="9.00" arrival="73.00" arrivalLane="52i_0" arrivalPos="10.00" arrivalSpeed="11.56" duration="54.00" routeLength="206.43" waitingTime="17.00" waitingCount="2" stopTime="0.00" timeLoss="46.16" rerouteNo="0" devices="tripinfo_southright_12" vType="typeSE" speedFactor="1.05" vaporized=""/>
    <tripinfo id="upleft_16" depart="19.00" departLane="54o_0" departPos="2.80" departSpeed="0.00" departDelay="8.00" arrival="73.00" arrivalLane="51i_0" arrivalPos="10.00" arrivalSpeed="11.77" duration="54.00" routeLength="206.43" waitingTime="14.00" waitingCount="1" stopTime="0.00" timeLoss="45.93" rerouteNo="0" devices="tripinfo_upleft_16" vType="typeNW" speedFactor="0.88" vaporized=""/>
    <tripinfo id="up_14" depart="23.00" departLane="53o_0" departPos="2.80" departSpeed="0.00" departDelay="13.00" arrival="75.00" arrivalLane="54i_0" arrivalPos="10.00" arrivalSpeed="11.87" duration="52.00" routeLength="211.80" waitingTime="14.00" waitingCount="2" stopTime="0.00" timeLoss="43.98" rerouteNo="0" devices="tripinfo_up_14" vType="typeSN1" speedFactor="0.99" vaporized=""/>
    <tripinfo id="down_17" depart="24.00" departLane="54o_0" departPos="2.80" departSpeed="0.00" departDelay="12.00" arrival="75.00" arrivalLane="53i_0" arrivalPos="10.00" arrivalSpeed="11.80" duration="51.00" routeLength="211.80" waitingTime="11.00" waitingCount="1" stopTime="0.00" timeLoss="43.27" rerouteNo="0" devices="tripinfo_down_17" vType="typeNS" speedFactor="0.94" vaporized=""/>
    <tripinfo id="southright_15" depart="28.00" departLane="53o_0" departPos="2.80" departSpeed="0.00" departDelay="17.00" arrival="76.00" arrivalLane="52i_0" arrivalPos="10.00" arrivalSpeed="11.80" duration="48.00" routeLength="206.43" waitingTime="11.00" waitingCount="1" stopTime="0.00" timeLoss="40.13" rerouteNo="0" devices="tripinfo_southright_15" vType="typeSE" speedFactor="0.93" vaporized=""/>
    <tripinfo id="right_11" depart="10.00" departLane="51o_0" departPos="2.95" departSpeed="0.00" departDelay="0.00" arrival="86.00" arrivalLane="52i_0" arrivalPos="10.00" arrivalSpeed="11.84" duration="76.00" routeLength="211.65" waitingTime="30.00" waitingCount="2" stopTime="0.00" timeLoss="68.02" rerouteNo="0" devices="tripinfo_right_11" vType="typeWE" speedFactor="1.03" vaporized=""/>
    <tripinfo id="left_27" depart="19.00" departLane="52o_0" departPos="2.95" departSpeed="0.00" departDelay="0.00" arrival="86.00" arrivalLane="51i_0" arrivalPos="10.00" arrivalSpeed="11.56" duration="67.00" routeLength="211.65" waitingTime="22.00" waitingCount="2" stopTime="0.00" timeLoss="58.96" rerouteNo="0" devices="tripinfo_left_27" vType="typeWE" speedFactor="0.95" vaporized=""/>
    <tripinfo id="right_18" depart="14.00" departLane="51o_0" departPos="2.95" departSpeed="0.00" departDelay="1.00" arrival="88.00" arrivalLane="52i_0" arrivalPos="10.00" arrivalSpeed="11.94" duration="74.00" routeLength="211.65" waitingTime="29.00" waitingCount="2" stopTime="0.00" timeLoss="65.76" rerouteNo="0" devices="tripinfo_right_18" vType="typeWE" speedFactor="0.94" vaporized=""/>
    <tripinfo id="left_29" depart="22.00" departLane="52o_0" departPos="2.95" departSpeed="0.00" departDelay="2.00" arrival="88.00" arrivalLane="51i_0" arrivalPos="10.00" arrivalSpeed="11.58" duration="66.00" routeLength="211.65" waitingTime="19.00" waitingCount="2" stopTime="0.00" timeLoss="57.76" rerouteNo="0" devices="tripinfo_left_29" vType="typeWE" speedFactor="0.93" vaporized=""/>
    <tripinfo id="left_30" depart="28.00" departLane="52o_0" departPos="2.95" departSpeed="0.00" departDelay="7.00" arrival="89.00" arrivalLane="51i_0" arrivalPos="10.00" arrivalSpeed="11.83" duration="61.00" routeLength="211.65" waitingTime="17.00" waitingCount="1" stopTime="0.00" timeLoss="53.34" rerouteNo="0" devices="tripinfo_left_30" vType="typeWE" speedFactor="1.18" vaporized=""/>
    <tripinfo id="right_26" depart="19.00" departLane="51o_0" departPos="2.95" departSpeed="0.00" departDelay="0.00" arrival="90.00" arrivalLane="52i_0" arrivalPos="10.00" arrivalSpeed="12.62" duration="71.00" routeLength="211.65" waitingTime="25.00" waitingCount="2" stopTime="0.00" timeLoss="62.68" rerouteNo="0" devices="tripinfo_right_26" vType="typeWE" speedFactor="0.92" vaporized=""/>
    <tripinfo id="southright_19" depart="31.00" departLane="53o_0" departPos="2.80" departSpeed="0.00" departDelay="17.00" arrival="110.00" arrivalLane="52i_0" arrivalPos="10.00" arrivalSpeed="11.37" duration="79.00" routeLength="206.43" waitingTime="33.00" waitingCount="2" stopTime="0.00" timeLoss="71.31" rerouteNo="0" devices="tripinfo_southright_19" vType="typeSE" speedFactor="1.16" vaporized=""/>
    <tripinfo id="down_20" depart="27.00" departLane="54o_0" departPos="2.80" departSpeed="0.00" departDelay="13.00" arrival="110.00" arrivalLane="53i_0" arrivalPos="10.00" arrivalSpeed="11.76" duration="83.00" routeLength="211.80" waitingTime="37.00" waitingCount="2" stopTime="0.00" timeLoss="74.89" rerouteNo="0" devices="tripinfo_down_20" vType="typeNS" speedFactor="1.02" vaporized=""/>
    <tripinfo id="down_22" depart="31.00" departLane="54o_0" departPos="2.80" departSpeed="0.00" departDelay="16.00" arrival="111.00" arrivalLane="53i_0" arrivalPos="10.00" arrivalSpeed="11.89" duration="80.00" routeLength="211.80" waitingTime="33.00" waitingCount="2" stopTime="0.00" timeLoss="72.08" rerouteNo="0" devices="tripinfo_down_22" vType="typeNS" speedFactor="0.98" vaporized=""/>
    <tripinfo id="southright_24" depart="35.00" departLane="53o_0" departPos="2.80" departSpeed="0.00" departDelay="18.00" arrival="111.00" arrivalLane="52i_0" arrivalPos="10.00" arrivalSpeed="11.09" duration="76.00" routeLength="206.43" waitingTime="30.00" waitingCount="2" stopTime="0.00" timeLoss="67.94" rerouteNo="0" devices="tripinfo_southright_24" vType="typeSE" speedFactor="0.83" vaporized=""/>
    <tripinfo id="down_23" depart="35.00" departLane="54o_0" departPos="2.80" departSpeed="0.00" departDelay="19.00" arrival="113.00" arrivalLane="53i_0" arrivalPos="10.00" arrivalSpeed="12.48" duration="78.00" routeLength="211.80" waitingTime="32.00" waitingCount="2" stopTime="0.00" timeLoss="69.78" rerouteNo="0" devices="tripinfo_down_23" vType="typeNS" speedFactor="0.89" vaporized=""/>
    <tripinfo id="up_25" depart="40.00" departLane="53o_0" departPos="2.80" departSpeed="0.00" departDelay="22.00" arrival="113.00" arrivalLane="54i_0" arrivalPos="10.00" arrivalSpeed="12.26" duration="73.00" routeLength="211.80" waitingTime="27.00" waitingCount="2" stopTime="0.00" timeLoss="64.69" rerouteNo="0" devices="tripinfo_up_25" vType="typeSN1" speedFactor="0.87" vaporized=""/>
    <tripinfo id="southright_28" depart="43.00" departLane="53o_0" departPos="2.80" departSpeed="0.00" departDelay="24.00" arrival="115.00" arrivalLane="52i_0" arrivalPos="10.00" arrivalSpeed="11.99" duration="72.00" routeLength="206.43" waitingTime="24.00" waitingCount="1" stopTime="0.00" timeLoss="64.29" rerouteNo="0" devices="tripinfo_southright_28" vType="typeSE" speedFactor="1.13" vaporized=""/>
    <tripinfo id="upleft_34" depart="39.00" departLane="54o_0" departPos="2.80" departSpeed="0.00" departDelay="12.00" arrival="115.00" arrivalLane="51i_0" arrivalPos="10.00" arrivalSpeed="12.02" duration="76.00" routeLength="206.43" waitingTime="29.00" waitingCount="2" stopTime="0.00" timeLoss="68.03" rerouteNo="0" devices="tripinfo_upleft_34" vType="typeNW" speedFactor="0.99" vaporized=""/>
    <tripinfo id="down_35" depart="43.00" departLane="54o_0" departPos="2.80" departSpeed="0.00" departDelay="16.00" arrival="117.00" arrivalLane="53i_0" arrivalPos="10.00" arrivalSpeed="12.52" duration="74.00" routeLength="211.80" waitingTime="25.00" waitingCount="1" stopTime="0.00" timeLoss="65.85" rerouteNo="0" devices="tripinfo_down_35" vType="typeNS" speedFactor="1.02" vaporized=""/>
    <tripinfo id="left_31" depart="31.00" departLane="52o_0" departPos="2.95" departSpeed="0.00" departDelay="9.00" arrival="134.00" arrivalLane="51i_0" arrivalPos="10.00" arrivalSpeed="11.43" duration="103.00" routeLength="211.65" waitingTime="56.00" waitingCount="2" stopTime="0.00" timeLoss="95.51" rerouteNo="0" devices="tripinfo_left_31" vType="typeWE" speedFactor="1.15" vaporized=""/>
    <tripinfo id="right_32" depart="24.00" departLane="51o_0" departPos="2.95" departSpeed="0.00" departDelay="0.00" arrival="134.00" arrivalLane="52i_0" arrivalPos="10.00" arrivalSpeed="11.74" duration="110.00" routeLength="211.65" waitingTime="59.00" waitingCount="3" stopTime="0.00" timeLoss="102.10" rerouteNo="0" devices="tripinfo_right_32" vType="typeWE" speedFactor="1.01" vaporized=""/>
    <tripinfo id="right_33" depart="28.00" departLane="51o_0" departPos="2.95" departSpeed="0.00" departDelay="1.00" arrival="136.00" arrivalLane="52i_0" arrivalPos="10.00" arrivalSpeed="12.45" duration="108.00" routeLength="211.65" waitingTime="57.00" waitingCount="2" stopTime="0.00" timeLoss="100.07" rerouteNo="0" devices="tripinfo_right_33" vType="typeWE" speedFactor="1.17" vaporized=""/>
</tripinfos>
