<?xml version="1.0" encoding="UTF-8"?>

<!-- generated on Sun Oct 25 17:47:48 2020 by Eclipse SUMO Version 1.6.0
<configuration xmlns:xsi="http://www.w3.org/2001/XMLSchema-instance" xsi:noNamespaceSchemaLocation="http://sumo.dlr.de/xsd/sumoConfiguration.xsd">

    <input>
        <net-file value="configs/example/traffic.net.xml"/>
        <route-files value="configs/example/traffic.rou.xml"/>
        <additional-files value="configs/example/traffic.det.xml"/>
    </input>

    <output>
        <tripinfo-output value="configs/example/tripinfo.xml"/>
    </output>

    <traci_server>
        <remote-port value="52751"/>
    </traci_server>

</configuration>
-->

<tripinfos xmlns:xsi="http://www.w3.org/2001/XMLSchema-instance" xsi:noNamespaceSchemaLocation="http://sumo.dlr.de/xsd/tripinfo_file.xsd">
    <tripinfo id="right_0" depart="0.00" departLane="51o_0" departPos="2.95" departSpeed="0.00" departDelay="0.00" arrival="51.00" arrivalLane="52i_0" arrivalPos="10.00" arrivalSpeed="11.57" duration="51.00" routeLength="211.65" waitingTime="13.00" waitingCount="1" stopTime="0.00" timeLoss="43.25" rerouteNo="0" devices="tripinfo_right_0" vType="typeWE" speedFactor="1.06" vaporized=""/>
    <tripinfo id="left_1" depart="1.00" departLane="52o_0" departPos="2.95" departSpeed="0.00" departDelay="0.00" arrival="52.00" arrivalLane="51i_0" arrivalPos="10.00" arrivalSpeed="11.87" duration="51.00" routeLength="211.65" waitingTime="11.00" waitingCount="1" stopTime="0.00" timeLoss="42.80" rerouteNo="0" devices="tripinfo_left_1" vType="typeWE" speedFactor="0.94" vaporized=""/>
    <tripinfo id="right_7" depart="7.00" departLane="51o_0" departPos="2.95" departSpeed="0.00" departDelay="0.00" arrival="53.00" arrivalLane="52i_0" arrivalPos="10.00" arrivalSpeed="12.36" duration="46.00" routeLength="211.65" waitingTime="9.00" waitingCount="1" stopTime="0.00" timeLoss="37.73" rerouteNo="0" devices="tripinfo_right_7" vType="typeWE" speedFactor="0.89" vaporized=""/>
    <tripinfo id="left_21" depart="15.00" departLane="52o_0" departPos="2.95" departSpeed="0.00" departDelay="0.00" arrival="53.00" arrivalLane="51i_0" arrivalPos="10.00" arrivalSpeed="11.89" duration="38.00" routeLength="211.65" waitingTime="0.00" waitingCount="0" stopTime="0.00" timeLoss="30.34" rerouteNo="0" devices="tripinfo_left_21" vType="typeWE" speedFactor="1.01" vaporized=""/>
    <tripinfo id="left_27" depart="19.00" departLane="52o_0" departPos="2.95" departSpeed="0.00" departDelay="0.00" arrival="55.00" arrivalLane="51i_0" arrivalPos="10.00" arrivalSpeed="11.49" duration="36.00" routeLength="211.65" waitingTime="0.00" waitingCount="0" stopTime="0.00" timeLoss="28.00" rerouteNo="0" devices="tripinfo_left_27" vType="typeWE" speedFactor="0.95" vaporized=""/>
    <tripinfo id="right_11" depart="10.00" departLane="51o_0" departPos="2.95" departSpeed="0.00" departDelay="0.00" arrival="56.00" arrivalLane="52i_0" arrivalPos="10.00" arrivalSpeed="12.39" duration="46.00" routeLength="211.65" waitingTime="4.00" waitingCount="1" stopTime="0.00" timeLoss="37.87" rerouteNo="0" devices="tripinfo_right_11" vType="typeWE" speedFactor="1.03" vaporized=""/>
    <tripinfo id="left_29" depart="22.00" departLane="52o_0" departPos="2.95" departSpeed="0.00" departDelay="2.00" arrival="57.00" arrivalLane="51i_0" arrivalPos="10.00" arrivalSpeed="12.55" duration="35.00" routeLength="211.65" waitingTime="0.00" waitingCount="0" stopTime="0.00" timeLoss="26.60" rerouteNo="0" devices="tripinfo_left_29" vType="typeWE" speedFactor="0.93" vaporized=""/>
    <tripinfo id="right_18" depart="14.00" departLane="51o_0" departPos="2.95" departSpeed="0.00" departDelay="1.00" arrival="58.00" arrivalLane="52i_0" arrivalPos="10.00" arrivalSpeed="12.31" duration="44.00" routeLength="211.65" waitingTime="3.00" waitingCount="1" stopTime="0.00" timeLoss="35.78" rerouteNo="0" devices="tripinfo_right_18" vType="typeWE" speedFactor="0.94" vaporized=""/>
    <tripinfo id="southright_2" depart="1.00" departLane="53o_0" departPos="2.80" departSpeed="0.00" departDelay="0.00" arrival="82.00" arrivalLane="52i_0" arrivalPos="10.00" arrivalSpeed="11.23" duration="81.00" routeLength="206.43" waitingTime="44.00" waitingCount="1" stopTime="0.00" timeLoss="73.65" rerouteNo="0" devices="tripinfo_southright_2" vType="typeSE" speedFactor="1.01" vaporized=""/>
    <tripinfo id="upleft_3" depart="4.00" departLane="54o_0" departPos="2.80" departSpeed="0.00" departDelay="0.00" arrival="83.00" arrivalLane="51i_0" arrivalPos="10.00" arrivalSpeed="11.62" duration="79.00" routeLength="206.43" waitingTime="41.00" waitingCount="1" stopTime="0.00" timeLoss="71.41" rerouteNo="0" devices="tripinfo_upleft_3" vType="typeNW" speedFactor="1.08" vaporized=""/>
    <tripinfo id="southright_4" depart="5.00" departLane="53o_0" departPos="2.80" departSpeed="0.00" departDelay="0.00" arrival="85.00" arrivalLane="52i_0" arrivalPos="10.00" arrivalSpeed="11.44" duration="80.00" routeLength="206.43" waitingTime="42.00" waitingCount="1" stopTime="0.00" timeLoss="72.18" rerouteNo="0" devices="tripinfo_southright_4" vType="typeSE" speedFactor="1.03" vaporized=""/>
    <tripinfo id="upleft_6" depart="8.00" departLane="54o_0" departPos="2.80" departSpeed="0.00" departDelay="2.00" arrival="85.00" arrivalLane="51i_0" arrivalPos="10.00" arrivalSpeed="12.01" duration="77.00" routeLength="206.43" waitingTime="38.00" waitingCount="1" stopTime="0.00" timeLoss="69.14" rerouteNo="0" devices="tripinfo_upleft_6" vType="typeNW" speedFactor="1.05" vaporized=""/>
    <tripinfo id="upleft_10" depart="12.00" departLane="54o_0" departPos="2.80" departSpeed="0.00" departDelay="3.00" arrival="86.00" arrivalLane="51i_0" arrivalPos="10.00" arrivalSpeed="11.78" duration="74.00" routeLength="206.43" waitingTime="34.00" waitingCount="1" stopTime="0.00" timeLoss="66.43" rerouteNo="0" devices="tripinfo_upleft_10" vType="typeNW" speedFactor="1.09" vaporized=""/>
    <tripinfo id="up_5" depart="8.00" departLane="53o_0" departPos="2.80" departSpeed="0.00" departDelay="3.00" arrival="87.00" arrivalLane="54i_0" arrivalPos="10.00" arrivalSpeed="12.29" duration="79.00" routeLength="211.80" waitingTime="39.00" waitingCount="1" stopTime="0.00" timeLoss="70.51" rerouteNo="0" devices="tripinfo_up_5" vType="typeSN1" speedFactor="0.83" vaporized=""/>
    <tripinfo id="southright_8" depart="12.00" departLane="53o_0" departPos="2.80" departSpeed="0.00" departDelay="5.00" arrival="88.00" arrivalLane="52i_0" arrivalPos="10.00" arrivalSpeed="11.72" duration="76.00" routeLength="206.43" waitingTime="37.00" waitingCount="1" stopTime="0.00" timeLoss="68.42" rerouteNo="0" devices="tripinfo_southright_8" vType="typeSE" speedFactor="0.94" vaporized=""/>
    <tripinfo id="upleft_13" depart="16.00" departLane="54o_0" departPos="2.80" departSpeed="0.00" departDelay="6.00" arrival="88.00" arrivalLane="51i_0" arrivalPos="10.00" arrivalSpeed="12.24" duration="72.00" routeLength="206.43" waitingTime="33.00" waitingCount="1" stopTime="0.00" timeLoss="64.26" rerouteNo="0" devices="tripinfo_upleft_13" vType="typeNW" speedFactor="1.12" vaporized=""/>
    <tripinfo id="upleft_16" depart="19.00" departLane="54o_0" departPos="2.80" departSpeed="0.00" departDelay="8.00" arrival="90.00" arrivalLane="51i_0" arrivalPos="10.00" arrivalSpeed="11.76" duration="71.00" routeLength="206.43" waitingTime="31.00" waitingCount="1" stopTime="0.00" timeLoss="63.02" rerouteNo="0" devices="tripinfo_upleft_16" vType="typeNW" speedFactor="0.88" vaporized=""/>
    <tripinfo id="up_9" depart="15.00" departLane="53o_0" departPos="2.80" departSpeed="0.00" departDelay="7.00" arrival="91.00" arrivalLane="54i_0" arrivalPos="10.00" arrivalSpeed="12.32" duration="76.00" routeLength="211.80" waitingTime="36.00" waitingCount="1" stopTime="0.00" timeLoss="67.52" rerouteNo="0" devices="tripinfo_up_9" vType="typeSN1" speedFactor="0.86" vaporized=""/>
    <tripinfo id="right_26" depart="19.00" departLane="51o_0" departPos="2.95" departSpeed="0.00" departDelay="0.00" arrival="118.00" arrivalLane="52i_0" arrivalPos="10.00" arrivalSpeed="11.72" duration="99.00" routeLength="211.65" waitingTime="52.00" waitingCount="1" stopTime="0.00" timeLoss="90.70" rerouteNo="0" devices="tripinfo_right_26" vType="typeWE" speedFactor="0.92" vaporized=""/>
    <tripinfo id="left_30" depart="26.00" departLane="52o_0" departPos="2.95" departSpeed="0.00" departDelay="5.00" arrival="118.00" arrivalLane="51i_0" arrivalPos="10.00" arrivalSpeed="11.78" duration="92.00" routeLength="211.65" waitingTime="53.00" waitingCount="1" stopTime="0.00" timeLoss="84.27" rerouteNo="0" devices="tripinfo_left_30" vType="typeWE" speedFactor="1.18" vaporized=""/>
    <tripinfo id="left_31" depart="30.00" departLane="52o_0" departPos="2.95" departSpeed="0.00" departDelay="8.00" arrival="119.00" arrivalLane="51i_0" arrivalPos="10.00" arrivalSpeed="11.50" duration="89.00" routeLength="211.65" waitingTime="51.00" waitingCount="1" stopTime="0.00" timeLoss="81.57" rerouteNo="0" devices="tripinfo_left_31" vType="typeWE" speedFactor="1.15" vaporized=""/>
    <tripinfo id="right_32" depart="24.00" departLane="51o_0" departPos="2.95" departSpeed="0.00" departDelay="0.00" arrival="119.00" arrivalLane="52i_0" arrivalPos="10.00" arrivalSpeed="11.91" duration="95.00" routeLength="211.65" waitingTime="52.00" waitingCount="1" stopTime="0.00" timeLoss="87.00" rerouteNo="0" devices="tripinfo_right_32" vType="typeWE" speedFactor="1.01" vaporized=""/>
    <tripinfo id="right_33" depart="28.00" departLane="51o_0" departPos="2.95" departSpeed="0.00" departDelay="1.00" arrival="121.00" arrivalLane="52i_0" arrivalPos="10.00" arrivalSpeed="12.70" duration="93.00" routeLength="211.65" waitingTime="51.00" waitingCount="1" stopTime="0.00" timeLoss="85.16" rerouteNo="0" devices="tripinfo_right_33" vType="typeWE" speedFactor="1.17" vaporized=""/>
    <tripinfo id="down_17" depart="24.00" departLane="54o_0" departPos="2.80" departSpeed="0.00" departDelay="12.00" arrival="147.00" arrivalLane="53i_0" arrivalPos="10.00" arrivalSpeed="11.88" duration="123.00" routeLength="211.80" waitingTime="79.00" waitingCount="2" stopTime="0.00" timeLoss="114.93" rerouteNo="0" devices="tripinfo_down_17" vType="typeNS" speedFactor="0.94" vaporized=""/>
    <tripinfo id="southright_12" depart="19.00" departLane="53o_0" departPos="2.80" departSpeed="0.00" departDelay="9.00" arrival="148.00" arrivalLane="52i_0" arrivalPos="10.00" arrivalSpeed="11.14" duration="129.00" routeLength="206.43" waitingTime="85.00" waitingCount="3" stopTime="0.00" timeLoss="121.22" rerouteNo="0" devices="tripinfo_southright_12" vType="typeSE" speedFactor="1.05" vaporized=""/>
    <tripinfo id="down_20" depart="27.00" departLane="54o_0" departPos="2.80" departSpeed="0.00" departDelay="13.00" arrival="149.00" arrivalLane="53i_0" arrivalPos="10.00" arrivalSpeed="12.02" duration="122.00" routeLength="211.80" waitingTime="75.00" waitingCount="2" stopTime="0.00" timeLoss="113.89" rerouteNo="0" devices="tripinfo_down_20" vType="typeNS" speedFactor="1.02" vaporized=""/>
    <tripinfo id="up_14" depart="23.00" departLane="53o_0" departPos="2.80" departSpeed="0.00" departDelay="13.00" arrival="150.00" arrivalLane="54i_0" arrivalPos="10.00" arrivalSpeed="11.74" duration="127.00" routeLength="211.80" waitingTime="80.00" waitingCount="3" stopTime="0.00" timeLoss="119.13" rerouteNo="0" devices="tripinfo_up_14" vType="typeSN1" speedFactor="0.99" vaporized=""/>
    <tripinfo id="down_22" depart="31.00" departLane="54o_0" departPos="2.80" departSpeed="0.00" departDelay="16.00" arrival="150.00" arrivalLane="53i_0" arrivalPos="10.00" arrivalSpeed="11.55" duration="119.00" routeLength="211.80" waitingTime="73.00" waitingCount="2" stopTime="0.00" timeLoss="111.32" rerouteNo="0" devices="tripinfo_down_22" vType="typeNS" speedFactor="0.98" vaporized=""/>
    <tripinfo id="southright_15" depart="28.00" departLane="53o_0" departPos="2.80" departSpeed="0.00" departDelay="17.00" arrival="151.00" arrivalLane="52i_0" arrivalPos="10.00" arrivalSpeed="12.30" duration="123.00" routeLength="206.43" waitingTime="77.00" waitingCount="2" stopTime="0.00" timeLoss="114.92" rerouteNo="0" devices="tripinfo_southright_15" vType="typeSE" speedFactor="0.93" vaporized=""/>
    <tripinfo id="down_23" depart="35.00" departLane="54o_0" departPos="2.80" departSpeed="0.00" departDelay="19.00" arrival="152.00" arrivalLane="53i_0" arrivalPos="10.00" arrivalSpeed="12.10" duration="117.00" routeLength="211.80" waitingTime="68.00" waitingCount="2" stopTime="0.00" timeLoss="108.68" rerouteNo="0" devices="tripinfo_down_23" vType="typeNS" speedFactor="0.89" vaporized=""/>
    <tripinfo id="southright_19" depart="31.00" departLane="53o_0" departPos="2.80" departSpeed="0.00" departDelay="17.00" arrival="153.00" arrivalLane="52i_0" arrivalPos="10.00" arrivalSpeed="12.06" duration="122.00" routeLength="206.43" waitingTime="72.00" waitingCount="2" stopTime="0.00" timeLoss="114.27" rerouteNo="0" devices="tripinfo_southright_19" vType="typeSE" speedFactor="1.16" vaporized=""/>
    <tripinfo id="upleft_34" depart="39.00" departLane="54o_0" departPos="2.80" departSpeed="0.00" departDelay="12.00" arrival="153.00" arrivalLane="51i_0" arrivalPos="10.00" arrivalSpeed="12.61" duration="114.00" routeLength="206.43" waitingTime="68.00" waitingCount="2" stopTime="0.00" timeLoss="105.97" rerouteNo="0" devices="tripinfo_upleft_34" vType="typeNW" speedFactor="0.99" vaporized=""/>
    <tripinfo id="southright_24" depart="35.00" departLane="53o_0" departPos="2.80" departSpeed="0.00" departDelay="18.00" arrival="154.00" arrivalLane="52i_0" arrivalPos="10.00" arrivalSpeed="11.52" duration="119.00" routeLength="206.43" waitingTime="69.00" waitingCount="2" stopTime="0.00" timeLoss="110.96" rerouteNo="0" devices="tripinfo_southright_24" vType="typeSE" speedFactor="0.83" vaporized=""/>
    <tripinfo id="down_35" depart="43.00" departLane="54o_0" departPos="2.80" departSpeed="0.00" departDelay="16.00" arrival="154.00" arrivalLane="53i_0" arrivalPos="10.00" arrivalSpeed="13.10" duration="111.00" routeLength="211.80" waitingTime="66.00" waitingCount="2" stopTime="0.00" timeLoss="103.36" rerouteNo="0" devices="tripinfo_down_35" vType="typeNS" speedFactor="1.02" vaporized=""/>
    <tripinfo id="up_25" depart="40.00" departLane="53o_0" departPos="2.80" departSpeed="0.00" departDelay="22.00" arrival="155.00" arrivalLane="54i_0" arrivalPos="10.00" arrivalSpeed="12.65" duration="115.00" routeLength="211.80" waitingTime="67.00" waitingCount="2" stopTime="0.00" timeLoss="107.14" rerouteNo="0" devices="tripinfo_up_25" vType="typeSN1" speedFactor="0.87" vaporized=""/>
    <tripinfo id="southright_28" depart="43.00" departLane="53o_0" departPos="2.80" departSpeed="0.00" departDelay="24.00" arrival="203.00" arrivalLane="52i_0" arrivalPos="10.00" arrivalSpeed="10.95" duration="160.00" routeLength="206.43" waitingTime="102.00" waitingCount="3" stopTime="0.00" timeLoss="152.44" rerouteNo="0" devices="tripinfo_southright_28" vType="typeSE" speedFactor="1.13" vaporized=""/>
</tripinfos>
