<?xml version="1.0" encoding="UTF-8"?>

<!-- generated on Sun Nov  8 21:17:35 2020 by Eclipse SUMO Version 1.6.0
<configuration xmlns:xsi="http://www.w3.org/2001/XMLSchema-instance" xsi:noNamespaceSchemaLocation="http://sumo.dlr.de/xsd/sumoConfiguration.xsd">

    <input>
        <net-file value="configs/example/traffic.net.xml"/>
        <route-files value="configs/example/traffic.rou.xml"/>
        <additional-files value="configs/example/traffic.det.xml"/>
    </input>

    <output>
        <tripinfo-output value="configs/example/tripinfo.xml"/>
    </output>

</configuration>
-->

<tripinfos xmlns:xsi="http://www.w3.org/2001/XMLSchema-instance" xsi:noNamespaceSchemaLocation="http://sumo.dlr.de/xsd/tripinfo_file.xsd">
    <tripinfo id="upleft_3" depart="4.00" departLane="54o_0" departPos="2.80" departSpeed="0.00" departDelay="0.00" arrival="31.00" arrivalLane="51i_0" arrivalPos="10.00" arrivalSpeed="15.51" duration="27.00" routeLength="206.43" waitingTime="0.00" waitingCount="0" stopTime="0.00" timeLoss="19.01" rerouteNo="0" devices="tripinfo_upleft_3" vType="typeNW" speedFactor="1.08" vaporized=""/>
    <tripinfo id="upleft_6" depart="8.00" departLane="54o_0" departPos="2.80" departSpeed="0.00" departDelay="2.00" arrival="35.00" arrivalLane="51i_0" arrivalPos="10.00" arrivalSpeed="15.32" duration="27.00" routeLength="206.43" waitingTime="0.00" waitingCount="0" stopTime="0.00" timeLoss="19.09" rerouteNo="0" devices="tripinfo_upleft_6" vType="typeNW" speedFactor="1.05" vaporized=""/>
    <tripinfo id="upleft_10" depart="12.00" departLane="54o_0" departPos="2.80" departSpeed="0.00" departDelay="3.00" arrival="39.00" arrivalLane="51i_0" arrivalPos="10.00" arrivalSpeed="15.58" duration="27.00" routeLength="206.43" waitingTime="0.00" waitingCount="0" stopTime="0.00" timeLoss="18.95" rerouteNo="0" devices="tripinfo_upleft_10" vType="typeNW" speedFactor="1.09" vaporized=""/>
    <tripinfo id="southright_2" depart="1.00" departLane="53o_0" departPos="2.80" departSpeed="0.00" departDelay="0.00" arrival="40.00" arrivalLane="52i_0" arrivalPos="10.00" arrivalSpeed="11.39" duration="39.00" routeLength="206.43" waitingTime="1.00" waitingCount="1" stopTime="0.00" timeLoss="31.21" rerouteNo="0" devices="tripinfo_southright_2" vType="typeSE" speedFactor="1.01" vaporized=""/>
    <tripinfo id="southright_4" depart="5.00" departLane="53o_0" departPos="2.80" departSpeed="0.00" departDelay="0.00" arrival="41.00" arrivalLane="52i_0" arrivalPos="10.00" arrivalSpeed="11.53" duration="36.00" routeLength="206.43" waitingTime="0.00" waitingCount="0" stopTime="0.00" timeLoss="28.31" rerouteNo="0" devices="tripinfo_southright_4" vType="typeSE" speedFactor="1.03" vaporized=""/>
    <tripinfo id="upleft_13" depart="16.00" departLane="54o_0" departPos="2.80" departSpeed="0.00" departDelay="6.00" arrival="41.00" arrivalLane="51i_0" arrivalPos="10.00" arrivalSpeed="16.87" duration="25.00" routeLength="206.43" waitingTime="0.00" waitingCount="0" stopTime="0.00" timeLoss="17.04" rerouteNo="0" devices="tripinfo_upleft_13" vType="typeNW" speedFactor="1.12" vaporized=""/>
    <tripinfo id="up_5" depart="8.00" departLane="53o_0" departPos="2.80" departSpeed="0.00" departDelay="3.00" arrival="43.00" arrivalLane="54i_0" arrivalPos="10.00" arrivalSpeed="11.79" duration="35.00" routeLength="211.80" waitingTime="0.00" waitingCount="0" stopTime="0.00" timeLoss="27.07" rerouteNo="0" devices="tripinfo_up_5" vType="typeSN1" speedFactor="0.83" vaporized=""/>
    <tripinfo id="southright_8" depart="12.00" departLane="53o_0" departPos="2.80" departSpeed="0.00" departDelay="5.00" arrival="44.00" arrivalLane="52i_0" arrivalPos="10.00" arrivalSpeed="12.08" duration="32.00" routeLength="206.43" waitingTime="0.00" waitingCount="0" stopTime="0.00" timeLoss="23.97" rerouteNo="0" devices="tripinfo_southright_8" vType="typeSE" speedFactor="0.94" vaporized=""/>
    <tripinfo id="up_9" depart="15.00" departLane="53o_0" departPos="2.80" departSpeed="0.00" departDelay="7.00" arrival="45.00" arrivalLane="54i_0" arrivalPos="10.00" arrivalSpeed="12.45" duration="30.00" routeLength="211.80" waitingTime="0.00" waitingCount="0" stopTime="0.00" timeLoss="21.58" rerouteNo="0" devices="tripinfo_up_9" vType="typeSN1" speedFactor="0.86" vaporized=""/>
    <tripinfo id="right_0" depart="0.00" departLane="51o_0" departPos="2.95" departSpeed="0.00" departDelay="0.00" arrival="65.00" arrivalLane="52i_0" arrivalPos="10.00" arrivalSpeed="12.10" duration="65.00" routeLength="211.65" waitingTime="27.00" waitingCount="1" stopTime="0.00" timeLoss="57.12" rerouteNo="0" devices="tripinfo_right_0" vType="typeWE" speedFactor="1.06" vaporized=""/>
    <tripinfo id="left_1" depart="1.00" departLane="52o_0" departPos="2.95" departSpeed="0.00" departDelay="0.00" arrival="67.00" arrivalLane="51i_0" arrivalPos="10.00" arrivalSpeed="12.08" duration="66.00" routeLength="211.65" waitingTime="25.00" waitingCount="1" stopTime="0.00" timeLoss="57.80" rerouteNo="0" devices="tripinfo_left_1" vType="typeWE" speedFactor="0.94" vaporized=""/>
    <tripinfo id="right_7" depart="7.00" departLane="51o_0" departPos="2.95" departSpeed="0.00" departDelay="0.00" arrival="68.00" arrivalLane="52i_0" arrivalPos="10.00" arrivalSpeed="11.98" duration="61.00" routeLength="211.65" waitingTime="23.00" waitingCount="1" stopTime="0.00" timeLoss="52.50" rerouteNo="0" devices="tripinfo_right_7" vType="typeWE" speedFactor="0.89" vaporized=""/>
    <tripinfo id="left_21" depart="15.00" departLane="52o_0" departPos="2.95" departSpeed="0.00" departDelay="0.00" arrival="68.00" arrivalLane="51i_0" arrivalPos="10.00" arrivalSpeed="11.86" duration="53.00" routeLength="211.65" waitingTime="13.00" waitingCount="1" stopTime="0.00" timeLoss="45.02" rerouteNo="0" devices="tripinfo_left_21" vType="typeWE" speedFactor="1.01" vaporized=""/>
    <tripinfo id="right_11" depart="10.00" departLane="51o_0" departPos="2.95" departSpeed="0.00" departDelay="0.00" arrival="69.00" arrivalLane="52i_0" arrivalPos="10.00" arrivalSpeed="12.09" duration="59.00" routeLength="211.65" waitingTime="18.00" waitingCount="1" stopTime="0.00" timeLoss="51.06" rerouteNo="0" devices="tripinfo_right_11" vType="typeWE" speedFactor="1.03" vaporized=""/>
    <tripinfo id="right_18" depart="14.00" departLane="51o_0" departPos="2.95" departSpeed="0.00" departDelay="1.00" arrival="70.00" arrivalLane="52i_0" arrivalPos="10.00" arrivalSpeed="11.88" duration="56.00" routeLength="211.65" waitingTime="17.00" waitingCount="1" stopTime="0.00" timeLoss="48.40" rerouteNo="0" devices="tripinfo_right_18" vType="typeWE" speedFactor="0.94" vaporized=""/>
    <tripinfo id="left_27" depart="19.00" departLane="52o_0" departPos="2.95" departSpeed="0.00" departDelay="0.00" arrival="70.00" arrivalLane="51i_0" arrivalPos="10.00" arrivalSpeed="12.15" duration="51.00" routeLength="211.65" waitingTime="11.00" waitingCount="1" stopTime="0.00" timeLoss="42.93" rerouteNo="0" devices="tripinfo_left_27" vType="typeWE" speedFactor="0.95" vaporized=""/>
    <tripinfo id="right_26" depart="19.00" departLane="51o_0" departPos="2.95" departSpeed="0.00" departDelay="0.00" arrival="72.00" arrivalLane="52i_0" arrivalPos="10.00" arrivalSpeed="12.08" duration="53.00" routeLength="211.65" waitingTime="14.00" waitingCount="1" stopTime="0.00" timeLoss="44.90" rerouteNo="0" devices="tripinfo_right_26" vType="typeWE" speedFactor="0.92" vaporized=""/>
    <tripinfo id="left_29" depart="22.00" departLane="52o_0" departPos="2.95" departSpeed="0.00" departDelay="2.00" arrival="72.00" arrivalLane="51i_0" arrivalPos="10.00" arrivalSpeed="12.59" duration="50.00" routeLength="211.65" waitingTime="8.00" waitingCount="1" stopTime="0.00" timeLoss="41.66" rerouteNo="0" devices="tripinfo_left_29" vType="typeWE" speedFactor="0.93" vaporized=""/>
    <tripinfo id="left_30" depart="26.00" departLane="52o_0" departPos="2.95" departSpeed="0.00" departDelay="5.00" arrival="74.00" arrivalLane="51i_0" arrivalPos="10.00" arrivalSpeed="12.18" duration="48.00" routeLength="211.65" waitingTime="5.00" waitingCount="1" stopTime="0.00" timeLoss="40.17" rerouteNo="0" devices="tripinfo_left_30" vType="typeWE" speedFactor="1.18" vaporized=""/>
    <tripinfo id="right_32" depart="24.00" departLane="51o_0" departPos="2.95" departSpeed="0.00" departDelay="0.00" arrival="74.00" arrivalLane="52i_0" arrivalPos="10.00" arrivalSpeed="12.65" duration="50.00" routeLength="211.65" waitingTime="10.00" waitingCount="1" stopTime="0.00" timeLoss="41.76" rerouteNo="0" devices="tripinfo_right_32" vType="typeWE" speedFactor="1.01" vaporized=""/>
    <tripinfo id="left_31" depart="30.00" departLane="52o_0" departPos="2.95" departSpeed="0.00" departDelay="8.00" arrival="75.00" arrivalLane="51i_0" arrivalPos="10.00" arrivalSpeed="11.73" duration="45.00" routeLength="211.65" waitingTime="4.00" waitingCount="1" stopTime="0.00" timeLoss="37.35" rerouteNo="0" devices="tripinfo_left_31" vType="typeWE" speedFactor="1.15" vaporized=""/>
    <tripinfo id="southright_12" depart="19.00" departLane="53o_0" departPos="2.80" departSpeed="0.00" departDelay="9.00" arrival="91.00" arrivalLane="52i_0" arrivalPos="10.00" arrivalSpeed="11.45" duration="72.00" routeLength="206.43" waitingTime="35.00" waitingCount="2" stopTime="0.00" timeLoss="64.21" rerouteNo="0" devices="tripinfo_southright_12" vType="typeSE" speedFactor="1.05" vaporized=""/>
    <tripinfo id="upleft_16" depart="19.00" departLane="54o_0" departPos="2.80" departSpeed="0.00" departDelay="8.00" arrival="91.00" arrivalLane="51i_0" arrivalPos="10.00" arrivalSpeed="11.59" duration="72.00" routeLength="206.43" waitingTime="32.00" waitingCount="1" stopTime="0.00" timeLoss="63.92" rerouteNo="0" devices="tripinfo_upleft_16" vType="typeNW" speedFactor="0.88" vaporized=""/>
    <tripinfo id="down_17" depart="24.00" departLane="54o_0" departPos="2.80" departSpeed="0.00" departDelay="12.00" arrival="93.00" arrivalLane="53i_0" arrivalPos="10.00" arrivalSpeed="12.34" duration="69.00" routeLength="211.80" waitingTime="29.00" waitingCount="1" stopTime="0.00" timeLoss="60.81" rerouteNo="0" devices="tripinfo_down_17" vType="typeNS" speedFactor="0.94" vaporized=""/>
    <tripinfo id="up_14" depart="23.00" departLane="53o_0" departPos="2.80" departSpeed="0.00" departDelay="13.00" arrival="94.00" arrivalLane="54i_0" arrivalPos="10.00" arrivalSpeed="11.57" duration="71.00" routeLength="211.80" waitingTime="31.00" waitingCount="2" stopTime="0.00" timeLoss="63.12" rerouteNo="0" devices="tripinfo_up_14" vType="typeSN1" speedFactor="0.99" vaporized=""/>
    <tripinfo id="southright_15" depart="28.00" departLane="53o_0" departPos="2.80" departSpeed="0.00" departDelay="17.00" arrival="95.00" arrivalLane="52i_0" arrivalPos="10.00" arrivalSpeed="11.95" duration="67.00" routeLength="206.43" waitingTime="28.00" waitingCount="1" stopTime="0.00" timeLoss="58.80" rerouteNo="0" devices="tripinfo_southright_15" vType="typeSE" speedFactor="0.93" vaporized=""/>
    <tripinfo id="down_20" depart="27.00" departLane="54o_0" departPos="2.80" departSpeed="0.00" departDelay="13.00" arrival="95.00" arrivalLane="53i_0" arrivalPos="10.00" arrivalSpeed="12.46" duration="68.00" routeLength="211.80" waitingTime="28.00" waitingCount="1" stopTime="0.00" timeLoss="59.84" rerouteNo="0" devices="tripinfo_down_20" vType="typeNS" speedFactor="1.02" vaporized=""/>
    <tripinfo id="southright_19" depart="31.00" departLane="53o_0" departPos="2.80" departSpeed="0.00" departDelay="17.00" arrival="96.00" arrivalLane="52i_0" arrivalPos="10.00" arrivalSpeed="12.28" duration="65.00" routeLength="206.43" waitingTime="25.00" waitingCount="1" stopTime="0.00" timeLoss="57.34" rerouteNo="0" devices="tripinfo_southright_19" vType="typeSE" speedFactor="1.16" vaporized=""/>
    <tripinfo id="down_22" depart="31.00" departLane="54o_0" departPos="2.80" departSpeed="0.00" departDelay="16.00" arrival="96.00" arrivalLane="53i_0" arrivalPos="10.00" arrivalSpeed="11.85" duration="65.00" routeLength="211.80" waitingTime="25.00" waitingCount="1" stopTime="0.00" timeLoss="57.10" rerouteNo="0" devices="tripinfo_down_22" vType="typeNS" speedFactor="0.98" vaporized=""/>
    <tripinfo id="down_23" depart="35.00" departLane="54o_0" departPos="2.80" departSpeed="0.00" departDelay="19.00" arrival="98.00" arrivalLane="53i_0" arrivalPos="10.00" arrivalSpeed="12.51" duration="63.00" routeLength="211.80" waitingTime="24.00" waitingCount="1" stopTime="0.00" timeLoss="54.58" rerouteNo="0" devices="tripinfo_down_23" vType="typeNS" speedFactor="0.89" vaporized=""/>
    <tripinfo id="southright_24" depart="35.00" departLane="53o_0" departPos="2.80" departSpeed="0.00" departDelay="18.00" arrival="98.00" arrivalLane="52i_0" arrivalPos="10.00" arrivalSpeed="12.17" duration="63.00" routeLength="206.43" waitingTime="23.00" waitingCount="1" stopTime="0.00" timeLoss="54.71" rerouteNo="0" devices="tripinfo_southright_24" vType="typeSE" speedFactor="0.83" vaporized=""/>
    <tripinfo id="upleft_34" depart="39.00" departLane="54o_0" departPos="2.80" departSpeed="0.00" departDelay="12.00" arrival="99.00" arrivalLane="51i_0" arrivalPos="10.00" arrivalSpeed="12.84" duration="60.00" routeLength="206.43" waitingTime="20.00" waitingCount="1" stopTime="0.00" timeLoss="52.01" rerouteNo="0" devices="tripinfo_upleft_34" vType="typeNW" speedFactor="0.99" vaporized=""/>
    <tripinfo id="up_25" depart="40.00" departLane="53o_0" departPos="2.80" departSpeed="0.00" departDelay="22.00" arrival="100.00" arrivalLane="54i_0" arrivalPos="10.00" arrivalSpeed="12.88" duration="60.00" routeLength="211.80" waitingTime="21.00" waitingCount="1" stopTime="0.00" timeLoss="51.47" rerouteNo="0" devices="tripinfo_up_25" vType="typeSN1" speedFactor="0.87" vaporized=""/>
    <tripinfo id="southright_28" depart="43.00" departLane="53o_0" departPos="2.80" departSpeed="0.00" departDelay="24.00" arrival="101.00" arrivalLane="52i_0" arrivalPos="10.00" arrivalSpeed="12.08" duration="58.00" routeLength="206.43" waitingTime="19.00" waitingCount="1" stopTime="0.00" timeLoss="50.45" rerouteNo="0" devices="tripinfo_southright_28" vType="typeSE" speedFactor="1.13" vaporized=""/>
    <tripinfo id="down_35" depart="45.00" departLane="54o_0" departPos="2.80" departSpeed="0.00" departDelay="18.00" arrival="101.00" arrivalLane="53i_0" arrivalPos="10.00" arrivalSpeed="12.30" duration="56.00" routeLength="211.80" waitingTime="17.00" waitingCount="1" stopTime="0.00" timeLoss="48.06" rerouteNo="0" devices="tripinfo_down_35" vType="typeNS" speedFactor="1.02" vaporized=""/>
    <tripinfo id="right_33" depart="28.00" departLane="51o_0" departPos="2.95" departSpeed="0.00" departDelay="1.00" arrival="369.00" arrivalLane="52i_0" arrivalPos="10.00" arrivalSpeed="22.71" duration="341.00" routeLength="197.25" waitingTime="309.00" waitingCount="2" stopTime="0.00" timeLoss="333.88" rerouteNo="0" devices="tripinfo_right_33" vType="typeWE" speedFactor="1.17" vaporized=""/>
</tripinfos>
