<?xml version="1.0" encoding="UTF-8"?>

<!-- generated on Thu Nov 12 15:37:36 2020 by Eclipse SUMO Version 1.6.0
<configuration xmlns:xsi="http://www.w3.org/2001/XMLSchema-instance" xsi:noNamespaceSchemaLocation="http://sumo.dlr.de/xsd/sumoConfiguration.xsd">

    <input>
        <net-file value="configs/example/traffic.net.xml"/>
        <route-files value="configs/example/traffic.rou.xml"/>
        <additional-files value="configs/example/traffic.det.xml"/>
    </input>

    <output>
        <tripinfo-output value="configs/example/tripinfo.xml"/>
    </output>

</configuration>
-->

<tripinfos xmlns:xsi="http://www.w3.org/2001/XMLSchema-instance" xsi:noNamespaceSchemaLocation="http://sumo.dlr.de/xsd/tripinfo_file.xsd">
    <tripinfo id="right_0" depart="0.00" departLane="51o_0" departPos="2.95" departSpeed="0.00" departDelay="0.00" arrival="26.00" arrivalLane="52i_0" arrivalPos="10.00" arrivalSpeed="16.05" duration="26.00" routeLength="211.65" waitingTime="0.00" waitingCount="0" stopTime="0.00" timeLoss="18.33" rerouteNo="0" devices="tripinfo_right_0" vType="typeWE" speedFactor="1.06" vaporized=""/>
    <tripinfo id="left_1" depart="1.00" departLane="52o_0" departPos="2.95" departSpeed="0.00" departDelay="0.00" arrival="28.00" arrivalLane="51i_0" arrivalPos="10.00" arrivalSpeed="15.52" duration="27.00" routeLength="211.65" waitingTime="0.00" waitingCount="0" stopTime="0.00" timeLoss="18.73" rerouteNo="0" devices="tripinfo_left_1" vType="typeWE" speedFactor="0.94" vaporized=""/>
    <tripinfo id="right_7" depart="7.00" departLane="51o_0" departPos="2.95" departSpeed="0.00" departDelay="0.00" arrival="53.00" arrivalLane="52i_0" arrivalPos="10.00" arrivalSpeed="11.81" duration="46.00" routeLength="211.65" waitingTime="9.00" waitingCount="1" stopTime="0.00" timeLoss="37.75" rerouteNo="0" devices="tripinfo_right_7" vType="typeWE" speedFactor="0.89" vaporized=""/>
    <tripinfo id="left_21" depart="15.00" departLane="52o_0" departPos="2.95" departSpeed="0.00" departDelay="0.00" arrival="54.00" arrivalLane="51i_0" arrivalPos="10.00" arrivalSpeed="12.01" duration="39.00" routeLength="211.65" waitingTime="0.00" waitingCount="0" stopTime="0.00" timeLoss="30.94" rerouteNo="0" devices="tripinfo_left_21" vType="typeWE" speedFactor="1.01" vaporized=""/>
    <tripinfo id="right_11" depart="10.00" departLane="51o_0" departPos="2.95" departSpeed="0.00" departDelay="0.00" arrival="55.00" arrivalLane="52i_0" arrivalPos="10.00" arrivalSpeed="11.92" duration="45.00" routeLength="211.65" waitingTime="6.00" waitingCount="1" stopTime="0.00" timeLoss="37.17" rerouteNo="0" devices="tripinfo_right_11" vType="typeWE" speedFactor="1.03" vaporized=""/>
    <tripinfo id="left_27" depart="19.00" departLane="52o_0" departPos="2.95" departSpeed="0.00" departDelay="0.00" arrival="56.00" arrivalLane="51i_0" arrivalPos="10.00" arrivalSpeed="11.59" duration="37.00" routeLength="211.65" waitingTime="0.00" waitingCount="0" stopTime="0.00" timeLoss="28.91" rerouteNo="0" devices="tripinfo_left_27" vType="typeWE" speedFactor="0.95" vaporized=""/>
    <tripinfo id="right_18" depart="14.00" departLane="51o_0" departPos="2.95" departSpeed="0.00" departDelay="1.00" arrival="81.00" arrivalLane="52i_0" arrivalPos="10.00" arrivalSpeed="11.66" duration="67.00" routeLength="211.65" waitingTime="22.00" waitingCount="2" stopTime="0.00" timeLoss="58.83" rerouteNo="0" devices="tripinfo_right_18" vType="typeWE" speedFactor="0.94" vaporized=""/>
    <tripinfo id="right_26" depart="19.00" departLane="51o_0" departPos="2.95" departSpeed="0.00" departDelay="0.00" arrival="82.00" arrivalLane="52i_0" arrivalPos="10.00" arrivalSpeed="11.79" duration="63.00" routeLength="211.65" waitingTime="18.00" waitingCount="1" stopTime="0.00" timeLoss="55.20" rerouteNo="0" devices="tripinfo_right_26" vType="typeWE" speedFactor="0.92" vaporized=""/>
    <tripinfo id="left_29" depart="22.00" departLane="52o_0" departPos="2.95" departSpeed="0.00" departDelay="2.00" arrival="82.00" arrivalLane="51i_0" arrivalPos="10.00" arrivalSpeed="11.85" duration="60.00" routeLength="211.65" waitingTime="19.00" waitingCount="1" stopTime="0.00" timeLoss="51.75" rerouteNo="0" devices="tripinfo_left_29" vType="typeWE" speedFactor="0.93" vaporized=""/>
    <tripinfo id="southright_2" depart="1.00" departLane="53o_0" departPos="2.80" departSpeed="0.00" departDelay="0.00" arrival="90.00" arrivalLane="52i_0" arrivalPos="10.00" arrivalSpeed="11.41" duration="89.00" routeLength="206.43" waitingTime="51.00" waitingCount="1" stopTime="0.00" timeLoss="81.62" rerouteNo="0" devices="tripinfo_southright_2" vType="typeSE" speedFactor="1.01" vaporized=""/>
    <tripinfo id="upleft_3" depart="4.00" departLane="54o_0" departPos="2.80" departSpeed="0.00" departDelay="0.00" arrival="90.00" arrivalLane="51i_0" arrivalPos="10.00" arrivalSpeed="11.92" duration="86.00" routeLength="206.43" waitingTime="48.00" waitingCount="1" stopTime="0.00" timeLoss="78.33" rerouteNo="0" devices="tripinfo_upleft_3" vType="typeNW" speedFactor="1.08" vaporized=""/>
    <tripinfo id="southright_4" depart="5.00" departLane="53o_0" departPos="2.80" departSpeed="0.00" departDelay="0.00" arrival="92.00" arrivalLane="52i_0" arrivalPos="10.00" arrivalSpeed="11.18" duration="87.00" routeLength="206.43" waitingTime="49.00" waitingCount="1" stopTime="0.00" timeLoss="79.37" rerouteNo="0" devices="tripinfo_southright_4" vType="typeSE" speedFactor="1.03" vaporized=""/>
    <tripinfo id="upleft_6" depart="8.00" departLane="54o_0" departPos="2.80" departSpeed="0.00" departDelay="2.00" arrival="92.00" arrivalLane="51i_0" arrivalPos="10.00" arrivalSpeed="11.67" duration="84.00" routeLength="206.43" waitingTime="45.00" waitingCount="1" stopTime="0.00" timeLoss="76.26" rerouteNo="0" devices="tripinfo_upleft_6" vType="typeNW" speedFactor="1.05" vaporized=""/>
    <tripinfo id="up_5" depart="8.00" departLane="53o_0" departPos="2.80" departSpeed="0.00" departDelay="3.00" arrival="94.00" arrivalLane="54i_0" arrivalPos="10.00" arrivalSpeed="11.99" duration="86.00" routeLength="211.80" waitingTime="46.00" waitingCount="1" stopTime="0.00" timeLoss="78.01" rerouteNo="0" devices="tripinfo_up_5" vType="typeSN1" speedFactor="0.83" vaporized=""/>
    <tripinfo id="upleft_10" depart="12.00" departLane="54o_0" departPos="2.80" departSpeed="0.00" departDelay="3.00" arrival="94.00" arrivalLane="51i_0" arrivalPos="10.00" arrivalSpeed="11.47" duration="82.00" routeLength="206.43" waitingTime="41.00" waitingCount="1" stopTime="0.00" timeLoss="74.39" rerouteNo="0" devices="tripinfo_upleft_10" vType="typeNW" speedFactor="1.09" vaporized=""/>
    <tripinfo id="upleft_13" depart="16.00" departLane="54o_0" departPos="2.80" departSpeed="0.00" departDelay="6.00" arrival="96.00" arrivalLane="51i_0" arrivalPos="10.00" arrivalSpeed="12.21" duration="80.00" routeLength="206.43" waitingTime="40.00" waitingCount="1" stopTime="0.00" timeLoss="72.16" rerouteNo="0" devices="tripinfo_upleft_13" vType="typeNW" speedFactor="1.12" vaporized=""/>
    <tripinfo id="left_30" depart="26.00" departLane="52o_0" departPos="2.95" departSpeed="0.00" departDelay="5.00" arrival="105.00" arrivalLane="51i_0" arrivalPos="10.00" arrivalSpeed="12.37" duration="79.00" routeLength="211.65" waitingTime="37.00" waitingCount="2" stopTime="0.00" timeLoss="71.16" rerouteNo="0" devices="tripinfo_left_30" vType="typeWE" speedFactor="1.18" vaporized=""/>
    <tripinfo id="right_32" depart="24.00" departLane="51o_0" departPos="2.95" departSpeed="0.00" departDelay="0.00" arrival="105.00" arrivalLane="52i_0" arrivalPos="10.00" arrivalSpeed="11.23" duration="81.00" routeLength="211.65" waitingTime="33.00" waitingCount="2" stopTime="0.00" timeLoss="73.12" rerouteNo="0" devices="tripinfo_right_32" vType="typeWE" speedFactor="1.01" vaporized=""/>
    <tripinfo id="right_33" depart="28.00" departLane="51o_0" departPos="2.95" departSpeed="0.00" departDelay="1.00" arrival="107.00" arrivalLane="52i_0" arrivalPos="10.00" arrivalSpeed="12.21" duration="79.00" routeLength="211.65" waitingTime="32.00" waitingCount="2" stopTime="0.00" timeLoss="71.11" rerouteNo="0" devices="tripinfo_right_33" vType="typeWE" speedFactor="1.17" vaporized=""/>
    <tripinfo id="left_31" depart="30.00" departLane="52o_0" departPos="2.95" departSpeed="0.00" departDelay="8.00" arrival="108.00" arrivalLane="51i_0" arrivalPos="10.00" arrivalSpeed="11.71" duration="78.00" routeLength="211.65" waitingTime="33.00" waitingCount="2" stopTime="0.00" timeLoss="70.15" rerouteNo="0" devices="tripinfo_left_31" vType="typeWE" speedFactor="1.15" vaporized=""/>
    <tripinfo id="southright_8" depart="12.00" departLane="53o_0" departPos="2.80" departSpeed="0.00" departDelay="5.00" arrival="115.00" arrivalLane="52i_0" arrivalPos="10.00" arrivalSpeed="11.96" duration="103.00" routeLength="206.43" waitingTime="59.00" waitingCount="2" stopTime="0.00" timeLoss="94.97" rerouteNo="0" devices="tripinfo_southright_8" vType="typeSE" speedFactor="0.94" vaporized=""/>
    <tripinfo id="upleft_16" depart="19.00" departLane="54o_0" departPos="2.80" departSpeed="0.00" departDelay="8.00" arrival="115.00" arrivalLane="51i_0" arrivalPos="10.00" arrivalSpeed="11.34" duration="96.00" routeLength="206.43" waitingTime="51.00" waitingCount="2" stopTime="0.00" timeLoss="88.00" rerouteNo="0" devices="tripinfo_upleft_16" vType="typeNW" speedFactor="0.88" vaporized=""/>
    <tripinfo id="down_17" depart="24.00" departLane="54o_0" departPos="2.80" departSpeed="0.00" departDelay="12.00" arrival="117.00" arrivalLane="53i_0" arrivalPos="10.00" arrivalSpeed="12.03" duration="93.00" routeLength="211.80" waitingTime="48.00" waitingCount="2" stopTime="0.00" timeLoss="84.82" rerouteNo="0" devices="tripinfo_down_17" vType="typeNS" speedFactor="0.94" vaporized=""/>
    <tripinfo id="up_9" depart="15.00" departLane="53o_0" departPos="2.80" departSpeed="0.00" departDelay="7.00" arrival="118.00" arrivalLane="54i_0" arrivalPos="10.00" arrivalSpeed="11.65" duration="103.00" routeLength="211.80" waitingTime="55.00" waitingCount="2" stopTime="0.00" timeLoss="94.76" rerouteNo="0" devices="tripinfo_up_9" vType="typeSN1" speedFactor="0.86" vaporized=""/>
    <tripinfo id="southright_12" depart="19.00" departLane="53o_0" departPos="2.80" departSpeed="0.00" departDelay="9.00" arrival="141.00" arrivalLane="52i_0" arrivalPos="10.00" arrivalSpeed="11.34" duration="122.00" routeLength="206.43" waitingTime="73.00" waitingCount="4" stopTime="0.00" timeLoss="114.12" rerouteNo="0" devices="tripinfo_southright_12" vType="typeSE" speedFactor="1.05" vaporized=""/>
    <tripinfo id="down_20" depart="27.00" departLane="54o_0" departPos="2.80" departSpeed="0.00" departDelay="13.00" arrival="142.00" arrivalLane="53i_0" arrivalPos="10.00" arrivalSpeed="12.30" duration="115.00" routeLength="211.80" waitingTime="63.00" waitingCount="3" stopTime="0.00" timeLoss="106.82" rerouteNo="0" devices="tripinfo_down_20" vType="typeNS" speedFactor="1.02" vaporized=""/>
    <tripinfo id="up_14" depart="23.00" departLane="53o_0" departPos="2.80" departSpeed="0.00" departDelay="13.00" arrival="143.00" arrivalLane="54i_0" arrivalPos="10.00" arrivalSpeed="11.97" duration="120.00" routeLength="211.80" waitingTime="69.00" waitingCount="4" stopTime="0.00" timeLoss="112.37" rerouteNo="0" devices="tripinfo_up_14" vType="typeSN1" speedFactor="0.99" vaporized=""/>
    <tripinfo id="down_22" depart="31.00" departLane="54o_0" departPos="2.80" departSpeed="0.00" departDelay="16.00" arrival="143.00" arrivalLane="53i_0" arrivalPos="10.00" arrivalSpeed="11.69" duration="112.00" routeLength="211.80" waitingTime="60.00" waitingCount="3" stopTime="0.00" timeLoss="104.06" rerouteNo="0" devices="tripinfo_down_22" vType="typeNS" speedFactor="0.98" vaporized=""/>
    <tripinfo id="southright_15" depart="28.00" departLane="53o_0" departPos="2.80" departSpeed="0.00" departDelay="17.00" arrival="188.00" arrivalLane="52i_0" arrivalPos="10.00" arrivalSpeed="11.65" duration="160.00" routeLength="206.43" waitingTime="104.00" waitingCount="4" stopTime="0.00" timeLoss="152.00" rerouteNo="0" devices="tripinfo_southright_15" vType="typeSE" speedFactor="0.93" vaporized=""/>
    <tripinfo id="down_23" depart="35.00" departLane="54o_0" departPos="2.80" departSpeed="0.00" departDelay="19.00" arrival="189.00" arrivalLane="53i_0" arrivalPos="10.00" arrivalSpeed="11.42" duration="154.00" routeLength="211.80" waitingTime="91.00" waitingCount="4" stopTime="0.00" timeLoss="145.74" rerouteNo="0" devices="tripinfo_down_23" vType="typeNS" speedFactor="0.89" vaporized=""/>
    <tripinfo id="upleft_34" depart="39.00" departLane="54o_0" departPos="2.80" departSpeed="0.00" departDelay="12.00" arrival="190.00" arrivalLane="51i_0" arrivalPos="10.00" arrivalSpeed="12.08" duration="151.00" routeLength="206.43" waitingTime="90.00" waitingCount="4" stopTime="0.00" timeLoss="143.00" rerouteNo="0" devices="tripinfo_upleft_34" vType="typeNW" speedFactor="0.99" vaporized=""/>
    <tripinfo id="southright_19" depart="31.00" departLane="53o_0" departPos="2.80" departSpeed="0.00" departDelay="17.00" arrival="191.00" arrivalLane="52i_0" arrivalPos="10.00" arrivalSpeed="11.84" duration="160.00" routeLength="206.43" waitingTime="96.00" waitingCount="4" stopTime="0.00" timeLoss="152.25" rerouteNo="0" devices="tripinfo_southright_19" vType="typeSE" speedFactor="1.16" vaporized=""/>
    <tripinfo id="down_35" depart="43.00" departLane="54o_0" departPos="2.80" departSpeed="0.00" departDelay="16.00" arrival="210.00" arrivalLane="53i_0" arrivalPos="10.00" arrivalSpeed="12.31" duration="167.00" routeLength="211.80" waitingTime="102.00" waitingCount="6" stopTime="0.00" timeLoss="158.93" rerouteNo="0" devices="tripinfo_down_35" vType="typeNS" speedFactor="1.02" vaporized=""/>
    <tripinfo id="southright_24" depart="35.00" departLane="53o_0" departPos="2.80" departSpeed="0.00" departDelay="18.00" arrival="211.00" arrivalLane="52i_0" arrivalPos="10.00" arrivalSpeed="11.62" duration="176.00" routeLength="206.43" waitingTime="107.00" waitingCount="5" stopTime="0.00" timeLoss="167.66" rerouteNo="0" devices="tripinfo_southright_24" vType="typeSE" speedFactor="0.83" vaporized=""/>
    <tripinfo id="up_25" depart="40.00" departLane="53o_0" departPos="2.80" departSpeed="0.00" departDelay="22.00" arrival="213.00" arrivalLane="54i_0" arrivalPos="10.00" arrivalSpeed="11.65" duration="173.00" routeLength="211.80" waitingTime="103.00" waitingCount="5" stopTime="0.00" timeLoss="164.74" rerouteNo="0" devices="tripinfo_up_25" vType="typeSN1" speedFactor="0.87" vaporized=""/>
    <tripinfo id="southright_28" depart="43.00" departLane="53o_0" departPos="2.80" departSpeed="0.00" departDelay="24.00" arrival="214.00" arrivalLane="52i_0" arrivalPos="10.00" arrivalSpeed="11.50" duration="171.00" routeLength="206.43" waitingTime="98.00" waitingCount="5" stopTime="0.00" timeLoss="163.46" rerouteNo="0" devices="tripinfo_southright_28" vType="typeSE" speedFactor="1.13" vaporized=""/>
</tripinfos>
