<?xml version="1.0" encoding="UTF-8"?>

<!-- generated on Wed Nov 11 17:42:10 2020 by Eclipse SUMO Version 1.6.0
<configuration xmlns:xsi="http://www.w3.org/2001/XMLSchema-instance" xsi:noNamespaceSchemaLocation="http://sumo.dlr.de/xsd/sumoConfiguration.xsd">

    <input>
        <net-file value="configs/example/traffic.net.xml"/>
        <route-files value="configs/example/traffic.rou.xml"/>
        <additional-files value="configs/example/traffic.det.xml"/>
    </input>

    <output>
        <tripinfo-output value="configs/example/tripinfo.xml"/>
    </output>

</configuration>
-->

<tripinfos xmlns:xsi="http://www.w3.org/2001/XMLSchema-instance" xsi:noNamespaceSchemaLocation="http://sumo.dlr.de/xsd/tripinfo_file.xsd">
    <tripinfo id="left_1" depart="1.00" departLane="52o_0" departPos="2.95" departSpeed="0.00" departDelay="0.00" arrival="37.00" arrivalLane="51i_0" arrivalPos="10.00" arrivalSpeed="11.30" duration="36.00" routeLength="211.65" waitingTime="0.00" waitingCount="0" stopTime="0.00" timeLoss="28.03" rerouteNo="0" devices="tripinfo_left_1" vType="typeWE" speedFactor="0.94" vaporized=""/>
    <tripinfo id="right_0" depart="0.00" departLane="51o_0" departPos="2.95" departSpeed="0.00" departDelay="0.00" arrival="39.00" arrivalLane="52i_0" arrivalPos="10.00" arrivalSpeed="11.80" duration="39.00" routeLength="211.65" waitingTime="1.00" waitingCount="1" stopTime="0.00" timeLoss="31.51" rerouteNo="0" devices="tripinfo_right_0" vType="typeWE" speedFactor="1.06" vaporized=""/>
    <tripinfo id="southright_2" depart="1.00" departLane="53o_0" departPos="2.80" departSpeed="0.00" departDelay="0.00" arrival="56.00" arrivalLane="52i_0" arrivalPos="10.00" arrivalSpeed="11.63" duration="55.00" routeLength="206.43" waitingTime="17.00" waitingCount="1" stopTime="0.00" timeLoss="47.13" rerouteNo="0" devices="tripinfo_southright_2" vType="typeSE" speedFactor="1.01" vaporized=""/>
    <tripinfo id="upleft_3" depart="4.00" departLane="54o_0" departPos="2.80" departSpeed="0.00" departDelay="0.00" arrival="56.00" arrivalLane="51i_0" arrivalPos="10.00" arrivalSpeed="11.39" duration="52.00" routeLength="206.43" waitingTime="14.00" waitingCount="1" stopTime="0.00" timeLoss="44.35" rerouteNo="0" devices="tripinfo_upleft_3" vType="typeNW" speedFactor="1.08" vaporized=""/>
    <tripinfo id="southright_4" depart="5.00" departLane="53o_0" departPos="2.80" departSpeed="0.00" departDelay="0.00" arrival="58.00" arrivalLane="52i_0" arrivalPos="10.00" arrivalSpeed="11.72" duration="53.00" routeLength="206.43" waitingTime="15.00" waitingCount="1" stopTime="0.00" timeLoss="45.11" rerouteNo="0" devices="tripinfo_southright_4" vType="typeSE" speedFactor="1.03" vaporized=""/>
    <tripinfo id="upleft_6" depart="8.00" departLane="54o_0" departPos="2.80" departSpeed="0.00" departDelay="2.00" arrival="58.00" arrivalLane="51i_0" arrivalPos="10.00" arrivalSpeed="11.64" duration="50.00" routeLength="206.43" waitingTime="11.00" waitingCount="1" stopTime="0.00" timeLoss="42.27" rerouteNo="0" devices="tripinfo_upleft_6" vType="typeNW" speedFactor="1.05" vaporized=""/>
    <tripinfo id="up_5" depart="8.00" departLane="53o_0" departPos="2.80" departSpeed="0.00" departDelay="3.00" arrival="59.00" arrivalLane="54i_0" arrivalPos="10.00" arrivalSpeed="12.04" duration="51.00" routeLength="211.80" waitingTime="12.00" waitingCount="1" stopTime="0.00" timeLoss="42.65" rerouteNo="0" devices="tripinfo_up_5" vType="typeSN1" speedFactor="0.83" vaporized=""/>
    <tripinfo id="upleft_10" depart="12.00" departLane="54o_0" departPos="2.80" departSpeed="0.00" departDelay="3.00" arrival="60.00" arrivalLane="51i_0" arrivalPos="10.00" arrivalSpeed="12.45" duration="48.00" routeLength="206.43" waitingTime="7.00" waitingCount="1" stopTime="0.00" timeLoss="40.24" rerouteNo="0" devices="tripinfo_upleft_10" vType="typeNW" speedFactor="1.09" vaporized=""/>
    <tripinfo id="southright_8" depart="12.00" departLane="53o_0" departPos="2.80" departSpeed="0.00" departDelay="5.00" arrival="61.00" arrivalLane="52i_0" arrivalPos="10.00" arrivalSpeed="12.04" duration="49.00" routeLength="206.43" waitingTime="10.00" waitingCount="1" stopTime="0.00" timeLoss="40.87" rerouteNo="0" devices="tripinfo_southright_8" vType="typeSE" speedFactor="0.94" vaporized=""/>
    <tripinfo id="upleft_13" depart="16.00" departLane="54o_0" departPos="2.80" departSpeed="0.00" departDelay="6.00" arrival="62.00" arrivalLane="51i_0" arrivalPos="10.00" arrivalSpeed="12.45" duration="46.00" routeLength="206.43" waitingTime="6.00" waitingCount="1" stopTime="0.00" timeLoss="38.18" rerouteNo="0" devices="tripinfo_upleft_13" vType="typeNW" speedFactor="1.12" vaporized=""/>
    <tripinfo id="up_9" depart="15.00" departLane="53o_0" departPos="2.80" departSpeed="0.00" departDelay="7.00" arrival="63.00" arrivalLane="54i_0" arrivalPos="10.00" arrivalSpeed="12.37" duration="48.00" routeLength="211.80" waitingTime="8.00" waitingCount="1" stopTime="0.00" timeLoss="39.64" rerouteNo="0" devices="tripinfo_up_9" vType="typeSN1" speedFactor="0.86" vaporized=""/>
    <tripinfo id="upleft_16" depart="19.00" departLane="54o_0" departPos="2.80" departSpeed="0.00" departDelay="8.00" arrival="63.00" arrivalLane="51i_0" arrivalPos="10.00" arrivalSpeed="11.60" duration="44.00" routeLength="206.43" waitingTime="3.00" waitingCount="1" stopTime="0.00" timeLoss="36.42" rerouteNo="0" devices="tripinfo_upleft_16" vType="typeNW" speedFactor="0.88" vaporized=""/>
    <tripinfo id="southright_12" depart="19.00" departLane="53o_0" departPos="2.80" departSpeed="0.00" departDelay="9.00" arrival="65.00" arrivalLane="52i_0" arrivalPos="10.00" arrivalSpeed="12.13" duration="46.00" routeLength="206.43" waitingTime="8.00" waitingCount="2" stopTime="0.00" timeLoss="38.19" rerouteNo="0" devices="tripinfo_southright_12" vType="typeSE" speedFactor="1.05" vaporized=""/>
    <tripinfo id="down_17" depart="24.00" departLane="54o_0" departPos="2.80" departSpeed="0.00" departDelay="12.00" arrival="65.00" arrivalLane="53i_0" arrivalPos="10.00" arrivalSpeed="12.19" duration="41.00" routeLength="211.80" waitingTime="0.00" waitingCount="0" stopTime="0.00" timeLoss="32.97" rerouteNo="0" devices="tripinfo_down_17" vType="typeNS" speedFactor="0.94" vaporized=""/>
    <tripinfo id="up_14" depart="23.00" departLane="53o_0" departPos="2.80" departSpeed="0.00" departDelay="13.00" arrival="67.00" arrivalLane="54i_0" arrivalPos="10.00" arrivalSpeed="12.92" duration="44.00" routeLength="211.80" waitingTime="5.00" waitingCount="2" stopTime="0.00" timeLoss="35.86" rerouteNo="0" devices="tripinfo_up_14" vType="typeSN1" speedFactor="0.99" vaporized=""/>
    <tripinfo id="southright_15" depart="28.00" departLane="53o_0" departPos="2.80" departSpeed="0.00" departDelay="17.00" arrival="67.00" arrivalLane="52i_0" arrivalPos="10.00" arrivalSpeed="12.56" duration="39.00" routeLength="206.43" waitingTime="0.00" waitingCount="0" stopTime="0.00" timeLoss="31.04" rerouteNo="0" devices="tripinfo_southright_15" vType="typeSE" speedFactor="0.93" vaporized=""/>
    <tripinfo id="down_20" depart="27.00" departLane="54o_0" departPos="2.80" departSpeed="0.00" departDelay="13.00" arrival="67.00" arrivalLane="53i_0" arrivalPos="10.00" arrivalSpeed="13.35" duration="40.00" routeLength="211.80" waitingTime="0.00" waitingCount="0" stopTime="0.00" timeLoss="31.71" rerouteNo="0" devices="tripinfo_down_20" vType="typeNS" speedFactor="1.02" vaporized=""/>
    <tripinfo id="down_22" depart="31.00" departLane="54o_0" departPos="2.80" departSpeed="0.00" departDelay="16.00" arrival="68.00" arrivalLane="53i_0" arrivalPos="10.00" arrivalSpeed="12.66" duration="37.00" routeLength="211.80" waitingTime="0.00" waitingCount="0" stopTime="0.00" timeLoss="29.31" rerouteNo="0" devices="tripinfo_down_22" vType="typeNS" speedFactor="0.98" vaporized=""/>
    <tripinfo id="southright_19" depart="31.00" departLane="53o_0" departPos="2.80" departSpeed="0.00" departDelay="17.00" arrival="69.00" arrivalLane="52i_0" arrivalPos="10.00" arrivalSpeed="12.32" duration="38.00" routeLength="206.43" waitingTime="0.00" waitingCount="0" stopTime="0.00" timeLoss="30.63" rerouteNo="0" devices="tripinfo_southright_19" vType="typeSE" speedFactor="1.16" vaporized=""/>
    <tripinfo id="down_23" depart="35.00" departLane="54o_0" departPos="2.80" departSpeed="0.00" departDelay="19.00" arrival="70.00" arrivalLane="53i_0" arrivalPos="10.00" arrivalSpeed="13.62" duration="35.00" routeLength="211.80" waitingTime="0.00" waitingCount="0" stopTime="0.00" timeLoss="26.49" rerouteNo="0" devices="tripinfo_down_23" vType="typeNS" speedFactor="0.89" vaporized=""/>
    <tripinfo id="upleft_34" depart="39.00" departLane="54o_0" departPos="2.80" departSpeed="0.00" departDelay="12.00" arrival="70.00" arrivalLane="51i_0" arrivalPos="10.00" arrivalSpeed="13.21" duration="31.00" routeLength="206.43" waitingTime="0.00" waitingCount="0" stopTime="0.00" timeLoss="23.52" rerouteNo="0" devices="tripinfo_upleft_34" vType="typeNW" speedFactor="0.99" vaporized=""/>
    <tripinfo id="southright_24" depart="35.00" departLane="53o_0" departPos="2.80" departSpeed="0.00" departDelay="18.00" arrival="71.00" arrivalLane="52i_0" arrivalPos="10.00" arrivalSpeed="12.69" duration="36.00" routeLength="206.43" waitingTime="0.00" waitingCount="0" stopTime="0.00" timeLoss="27.72" rerouteNo="0" devices="tripinfo_southright_24" vType="typeSE" speedFactor="0.83" vaporized=""/>
    <tripinfo id="left_21" depart="15.00" departLane="52o_0" departPos="2.95" departSpeed="0.00" departDelay="0.00" arrival="85.00" arrivalLane="51i_0" arrivalPos="10.00" arrivalSpeed="11.54" duration="70.00" routeLength="211.65" waitingTime="31.00" waitingCount="1" stopTime="0.00" timeLoss="62.32" rerouteNo="0" devices="tripinfo_left_21" vType="typeWE" speedFactor="1.01" vaporized=""/>
    <tripinfo id="right_7" depart="7.00" departLane="51o_0" departPos="2.95" departSpeed="0.00" departDelay="0.00" arrival="86.00" arrivalLane="52i_0" arrivalPos="10.00" arrivalSpeed="11.74" duration="79.00" routeLength="211.65" waitingTime="41.00" waitingCount="1" stopTime="0.00" timeLoss="70.73" rerouteNo="0" devices="tripinfo_right_7" vType="typeWE" speedFactor="0.89" vaporized=""/>
    <tripinfo id="left_27" depart="19.00" departLane="52o_0" departPos="2.95" departSpeed="0.00" departDelay="0.00" arrival="87.00" arrivalLane="51i_0" arrivalPos="10.00" arrivalSpeed="11.61" duration="68.00" routeLength="211.65" waitingTime="29.00" waitingCount="1" stopTime="0.00" timeLoss="60.38" rerouteNo="0" devices="tripinfo_left_27" vType="typeWE" speedFactor="0.95" vaporized=""/>
    <tripinfo id="right_11" depart="10.00" departLane="51o_0" departPos="2.95" departSpeed="0.00" departDelay="0.00" arrival="88.00" arrivalLane="52i_0" arrivalPos="10.00" arrivalSpeed="11.79" duration="78.00" routeLength="211.65" waitingTime="37.00" waitingCount="1" stopTime="0.00" timeLoss="70.00" rerouteNo="0" devices="tripinfo_right_11" vType="typeWE" speedFactor="1.03" vaporized=""/>
    <tripinfo id="right_18" depart="14.00" departLane="51o_0" departPos="2.95" departSpeed="0.00" departDelay="1.00" arrival="89.00" arrivalLane="52i_0" arrivalPos="10.00" arrivalSpeed="11.46" duration="75.00" routeLength="211.65" waitingTime="36.00" waitingCount="1" stopTime="0.00" timeLoss="67.05" rerouteNo="0" devices="tripinfo_right_18" vType="typeWE" speedFactor="0.94" vaporized=""/>
    <tripinfo id="left_29" depart="22.00" departLane="52o_0" departPos="2.95" departSpeed="0.00" departDelay="2.00" arrival="90.00" arrivalLane="51i_0" arrivalPos="10.00" arrivalSpeed="12.15" duration="68.00" routeLength="211.65" waitingTime="27.00" waitingCount="1" stopTime="0.00" timeLoss="59.76" rerouteNo="0" devices="tripinfo_left_29" vType="typeWE" speedFactor="0.93" vaporized=""/>
    <tripinfo id="right_26" depart="19.00" departLane="51o_0" departPos="2.95" departSpeed="0.00" departDelay="0.00" arrival="91.00" arrivalLane="52i_0" arrivalPos="10.00" arrivalSpeed="12.40" duration="72.00" routeLength="211.65" waitingTime="32.00" waitingCount="1" stopTime="0.00" timeLoss="63.64" rerouteNo="0" devices="tripinfo_right_26" vType="typeWE" speedFactor="0.92" vaporized=""/>
    <tripinfo id="left_30" depart="26.00" departLane="52o_0" departPos="2.95" departSpeed="0.00" departDelay="5.00" arrival="91.00" arrivalLane="51i_0" arrivalPos="10.00" arrivalSpeed="11.57" duration="65.00" routeLength="211.65" waitingTime="25.00" waitingCount="1" stopTime="0.00" timeLoss="57.59" rerouteNo="0" devices="tripinfo_left_30" vType="typeWE" speedFactor="1.18" vaporized=""/>
    <tripinfo id="left_31" depart="30.00" departLane="52o_0" departPos="2.95" departSpeed="0.00" departDelay="8.00" arrival="93.00" arrivalLane="51i_0" arrivalPos="10.00" arrivalSpeed="12.17" duration="63.00" routeLength="211.65" waitingTime="23.00" waitingCount="1" stopTime="0.00" timeLoss="55.22" rerouteNo="0" devices="tripinfo_left_31" vType="typeWE" speedFactor="1.15" vaporized=""/>
    <tripinfo id="right_32" depart="24.00" departLane="51o_0" departPos="2.95" departSpeed="0.00" departDelay="0.00" arrival="93.00" arrivalLane="52i_0" arrivalPos="10.00" arrivalSpeed="12.23" duration="69.00" routeLength="211.65" waitingTime="29.00" waitingCount="1" stopTime="0.00" timeLoss="60.97" rerouteNo="0" devices="tripinfo_right_32" vType="typeWE" speedFactor="1.01" vaporized=""/>
    <tripinfo id="right_33" depart="28.00" departLane="51o_0" departPos="2.95" departSpeed="0.00" departDelay="1.00" arrival="108.00" arrivalLane="52i_0" arrivalPos="10.00" arrivalSpeed="11.74" duration="80.00" routeLength="211.65" waitingTime="33.00" waitingCount="2" stopTime="0.00" timeLoss="72.23" rerouteNo="0" devices="tripinfo_right_33" vType="typeWE" speedFactor="1.17" vaporized=""/>
    <tripinfo id="up_25" depart="40.00" departLane="53o_0" departPos="2.80" departSpeed="0.00" departDelay="22.00" arrival="195.00" arrivalLane="54i_0" arrivalPos="10.00" arrivalSpeed="11.46" duration="155.00" routeLength="211.80" waitingTime="115.00" waitingCount="1" stopTime="0.00" timeLoss="147.19" rerouteNo="0" devices="tripinfo_up_25" vType="typeSN1" speedFactor="0.87" vaporized=""/>
    <tripinfo id="southright_28" depart="43.00" departLane="53o_0" departPos="2.80" departSpeed="0.00" departDelay="24.00" arrival="196.00" arrivalLane="52i_0" arrivalPos="10.00" arrivalSpeed="11.63" duration="153.00" routeLength="206.43" waitingTime="115.00" waitingCount="1" stopTime="0.00" timeLoss="145.50" rerouteNo="0" devices="tripinfo_southright_28" vType="typeSE" speedFactor="1.13" vaporized=""/>
    <tripinfo id="down_35" depart="43.00" departLane="54o_0" departPos="2.80" departSpeed="0.00" departDelay="16.00" arrival="196.00" arrivalLane="53i_0" arrivalPos="10.00" arrivalSpeed="11.24" duration="153.00" routeLength="211.80" waitingTime="114.00" waitingCount="1" stopTime="0.00" timeLoss="145.17" rerouteNo="0" devices="tripinfo_down_35" vType="typeNS" speedFactor="1.02" vaporized=""/>
</tripinfos>
