<?xml version="1.0" encoding="UTF-8"?>

<!-- generated on Fri Nov 13 00:27:29 2020 by Eclipse SUMO GUI Version 7090c177
<configuration xmlns:xsi="http://www.w3.org/2001/XMLSchema-instance" xsi:noNamespaceSchemaLocation="http://sumo.dlr.de/xsd/sumoConfiguration.xsd">

    <input>
        <net-file value="configs/example/traffic.net.xml"/>
        <route-files value="configs/example/traffic.rou.xml"/>
    </input>

    <output>
        <tripinfo-output value="configs/example/tripinfo.xml"/>
    </output>

</configuration>
-->

<tripinfos xmlns:xsi="http://www.w3.org/2001/XMLSchema-instance" xsi:noNamespaceSchemaLocation="http://sumo.dlr.de/xsd/tripinfo_file.xsd">
    <tripinfo id="3" depart="36.00" departLane="54o_0" departPos="5.10" departSpeed="0.00" departDelay="0.00" arrival="58.00" arrivalLane="1o_0" arrivalPos="90.00" arrivalSpeed="15.50" duration="22.00" routeLength="194.03" waitingTime="0.00" waitingCount="0" stopTime="0.00" timeLoss="16.89" rerouteNo="0" devices="tripinfo_3" vType="DEFAULT_VEHTYPE" speedFactor="1.01" vaporized=""/>
    <tripinfo id="0" depart="0.00" departLane="4i_0" departPos="5.10" departSpeed="0.00" departDelay="0.00" arrival="62.00" arrivalLane="1i_0" arrivalPos="90.00" arrivalSpeed="20.74" duration="62.00" routeLength="298.80" waitingTime="32.00" waitingCount="1" stopTime="0.00" timeLoss="53.24" rerouteNo="0" devices="tripinfo_0" vType="DEFAULT_VEHTYPE" speedFactor="1.06" vaporized=""/>
    <tripinfo id="4" depart="48.00" departLane="52o_0" departPos="5.10" departSpeed="0.00" departDelay="0.00" arrival="70.00" arrivalLane="1i_0" arrivalPos="90.00" arrivalSpeed="22.58" duration="22.00" routeLength="314.27" waitingTime="0.00" waitingCount="0" stopTime="0.00" timeLoss="13.19" rerouteNo="0" devices="tripinfo_4" vType="DEFAULT_VEHTYPE" speedFactor="1.08" vaporized=""/>
    <tripinfo id="2" depart="24.00" departLane="4i_0" departPos="5.10" departSpeed="0.00" departDelay="0.00" arrival="78.00" arrivalLane="2i_0" arrivalPos="90.00" arrivalSpeed="20.54" duration="54.00" routeLength="518.07" waitingTime="10.00" waitingCount="1" stopTime="0.00" timeLoss="36.60" rerouteNo="0" devices="tripinfo_2" vType="DEFAULT_VEHTYPE" speedFactor="0.94" vaporized=""/>
    <tripinfo id="6" depart="72.00" departLane="52o_0" departPos="5.10" departSpeed="0.00" departDelay="0.00" arrival="112.00" arrivalLane="1i_0" arrivalPos="90.00" arrivalSpeed="21.63" duration="40.00" routeLength="314.27" waitingTime="9.00" waitingCount="1" stopTime="0.00" timeLoss="30.81" rerouteNo="0" devices="tripinfo_6" vType="DEFAULT_VEHTYPE" speedFactor="1.03" vaporized=""/>
    <tripinfo id="10" depart="120.00" departLane="1o_0" departPos="5.10" departSpeed="0.00" departDelay="0.00" arrival="137.00" arrivalLane="1i_0" arrivalPos="90.00" arrivalSpeed="19.52" duration="17.00" routeLength="179.58" waitingTime="0.00" waitingCount="0" stopTime="0.00" timeLoss="12.15" rerouteNo="0" devices="tripinfo_10" vType="DEFAULT_VEHTYPE" speedFactor="0.94" vaporized=""/>
    <tripinfo id="7" depart="84.00" departLane="4i_0" departPos="5.10" departSpeed="0.00" departDelay="0.00" arrival="144.00" arrivalLane="3o_0" arrivalPos="90.00" arrivalSpeed="21.53" duration="60.00" routeLength="189.30" waitingTime="37.00" waitingCount="1" stopTime="0.00" timeLoss="53.83" rerouteNo="0" devices="tripinfo_7" vType="DEFAULT_VEHTYPE" speedFactor="0.83" vaporized=""/>
    <tripinfo id="8" depart="96.00" departLane="3o_0" departPos="5.10" departSpeed="0.00" departDelay="0.00" arrival="144.00" arrivalLane="54i_0" arrivalPos="10.00" arrivalSpeed="19.89" duration="48.00" routeLength="314.27" waitingTime="19.00" waitingCount="1" stopTime="0.00" timeLoss="38.48" rerouteNo="0" devices="tripinfo_8" vType="DEFAULT_VEHTYPE" speedFactor="1.05" vaporized=""/>
    <tripinfo id="11" depart="132.00" departLane="2o_0" departPos="5.10" departSpeed="0.00" departDelay="0.00" arrival="150.00" arrivalLane="2i_0" arrivalPos="90.00" arrivalSpeed="18.91" duration="18.00" routeLength="179.58" waitingTime="0.00" waitingCount="0" stopTime="0.00" timeLoss="12.46" rerouteNo="0" devices="tripinfo_11" vType="DEFAULT_VEHTYPE" speedFactor="0.86" vaporized=""/>
    <tripinfo id="9" depart="108.00" departLane="4i_0" departPos="5.10" departSpeed="0.00" departDelay="0.00" arrival="168.00" arrivalLane="2i_0" arrivalPos="90.00" arrivalSpeed="19.18" duration="60.00" routeLength="518.07" waitingTime="14.00" waitingCount="1" stopTime="0.00" timeLoss="42.30" rerouteNo="0" devices="tripinfo_9" vType="DEFAULT_VEHTYPE" speedFactor="0.89" vaporized=""/>
    <tripinfo id="12" depart="144.00" departLane="3i_0" departPos="5.10" departSpeed="0.00" departDelay="0.00" arrival="182.00" arrivalLane="4i_0" arrivalPos="90.00" arrivalSpeed="22.20" duration="38.00" routeLength="304.17" waitingTime="8.00" waitingCount="1" stopTime="0.00" timeLoss="29.46" rerouteNo="0" devices="tripinfo_12" vType="DEFAULT_VEHTYPE" speedFactor="1.09" vaporized=""/>
    <tripinfo id="14" depart="169.00" departLane="4o_0" departPos="5.10" departSpeed="0.00" departDelay="1.00" arrival="210.00" arrivalLane="3i_0" arrivalPos="90.00" arrivalSpeed="21.59" duration="41.00" routeLength="419.04" waitingTime="2.00" waitingCount="1" stopTime="0.00" timeLoss="28.48" rerouteNo="0" devices="tripinfo_14" vType="DEFAULT_VEHTYPE" speedFactor="1.03" vaporized=""/>
    <tripinfo id="18" depart="216.00" departLane="1i_0" departPos="5.10" departSpeed="0.00" departDelay="0.00" arrival="247.00" arrivalLane="2o_0" arrivalPos="90.00" arrivalSpeed="20.04" duration="31.00" routeLength="189.30" waitingTime="9.00" waitingCount="1" stopTime="0.00" timeLoss="26.25" rerouteNo="0" devices="tripinfo_18" vType="DEFAULT_VEHTYPE" speedFactor="1.05" vaporized=""/>
</tripinfos>
