<?xml version="1.0" encoding="UTF-8"?>

<!-- generated on Fri Nov 13 11:05:55 2020 by Eclipse SUMO GUI Version 1.6.0
<configuration xmlns:xsi="http://www.w3.org/2001/XMLSchema-instance" xsi:noNamespaceSchemaLocation="http://sumo.dlr.de/xsd/sumoConfiguration.xsd">

    <input>
        <net-file value="configs/two_inter/two_inter.net.xml"/>
        <route-files value="configs/example/traffic.rou.xml"/>
    </input>

    <output>
        <tripinfo-output value="configs/two_inter/tripinfo.xml"/>
    </output>

    <traci_server>
        <remote-port value="62403"/>
    </traci_server>

</configuration>
-->

<tripinfos xmlns:xsi="http://www.w3.org/2001/XMLSchema-instance" xsi:noNamespaceSchemaLocation="http://sumo.dlr.de/xsd/tripinfo_file.xsd">
</tripinfos>
