<?xml version="1.0" encoding="UTF-8"?>

<!-- generated on Thu Nov 19 20:44:58 2020 by Eclipse SUMO Version 1.6.0
<configuration xmlns:xsi="http://www.w3.org/2001/XMLSchema-instance" xsi:noNamespaceSchemaLocation="http://sumo.dlr.de/xsd/sumoConfiguration.xsd">

    <input>
        <net-file value="configs/two_inter/two_inter.net.xml"/>
        <route-files value="configs/two_inter/traffic.rou.xml"/>
    </input>

    <output>
        <tripinfo-output value="configs/two_inter/tripinfo.xml"/>
    </output>

    <report>
        <no-warnings value="true"/>
    </report>

</configuration>
-->

<tripinfos xmlns:xsi="http://www.w3.org/2001/XMLSchema-instance" xsi:noNamespaceSchemaLocation="http://sumo.dlr.de/xsd/tripinfo_file.xsd">
    <tripinfo id="6" depart="28.00" departLane="gneE2_0" departPos="5.10" departSpeed="0.00" departDelay="0.44" arrival="58.00" arrivalLane="gneE6_0" arrivalPos="87.20" arrivalSpeed="14.51" duration="30.00" routeLength="264.46" waitingTime="0.00" waitingCount="0" stopTime="0.00" timeLoss="13.92" rerouteNo="0" devices="tripinfo_6" vType="DEFAULT_VEHTYPE" speedFactor="1.05" vaporized=""/>
    <tripinfo id="5" depart="23.00" departLane="e11_0" departPos="5.10" departSpeed="0.00" departDelay="0.03" arrival="65.00" arrivalLane="gneE8_1" arrivalPos="87.20" arrivalSpeed="10.70" duration="42.00" routeLength="394.46" waitingTime="0.00" waitingCount="0" stopTime="0.00" timeLoss="15.23" rerouteNo="0" devices="tripinfo_5" vType="DEFAULT_VEHTYPE" speedFactor="0.83" vaporized=""/>
    <tripinfo id="9" depart="42.00" departLane="e3_0" departPos="5.10" departSpeed="0.00" departDelay="0.65" arrival="74.00" arrivalLane="gneE7_0" arrivalPos="87.20" arrivalSpeed="11.79" duration="32.00" routeLength="273.71" waitingTime="0.00" waitingCount="0" stopTime="0.00" timeLoss="16.41" rerouteNo="0" devices="tripinfo_9" vType="DEFAULT_VEHTYPE" speedFactor="0.86" vaporized=""/>
    <tripinfo id="2" depart="10.00" departLane="e3_0" departPos="5.10" departSpeed="0.00" departDelay="0.81" arrival="77.00" arrivalLane="e10_1" arrivalPos="90.00" arrivalSpeed="20.45" duration="67.00" routeLength="386.94" waitingTime="26.00" waitingCount="1" stopTime="0.00" timeLoss="49.70" rerouteNo="0" devices="tripinfo_2" vType="DEFAULT_VEHTYPE" speedFactor="1.01" vaporized=""/>
    <tripinfo id="11" depart="51.00" departLane="gneE8_0" departPos="5.10" departSpeed="0.00" departDelay="0.46" arrival="79.00" arrivalLane="e6_1" arrivalPos="90.00" arrivalSpeed="19.29" duration="28.00" routeLength="294.36" waitingTime="0.00" waitingCount="0" stopTime="0.00" timeLoss="14.52" rerouteNo="0" devices="tripinfo_11" vType="DEFAULT_VEHTYPE" speedFactor="1.03" vaporized=""/>
    <tripinfo id="1" depart="5.00" departLane="e5_0" departPos="5.10" departSpeed="0.00" departDelay="0.41" arrival="95.00" arrivalLane="e3_0" arrivalPos="90.00" arrivalSpeed="6.74" duration="90.00" routeLength="481.88" waitingTime="31.00" waitingCount="2" stopTime="0.00" timeLoss="64.16" rerouteNo="0" devices="tripinfo_1" vType="DEFAULT_VEHTYPE" speedFactor="0.94" vaporized=""/>
    <tripinfo id="3" depart="14.00" departLane="e3_0" departPos="5.10" departSpeed="0.00" departDelay="0.22" arrival="99.00" arrivalLane="e7_0" arrivalPos="90.00" arrivalSpeed="14.07" duration="85.00" routeLength="578.64" waitingTime="23.00" waitingCount="1" stopTime="0.00" timeLoss="63.04" rerouteNo="0" devices="tripinfo_3" vType="DEFAULT_VEHTYPE" speedFactor="1.08" vaporized=""/>
    <tripinfo id="8" depart="37.00" departLane="e5_0" departPos="5.10" departSpeed="0.00" departDelay="0.25" arrival="99.00" arrivalLane="e3_0" arrivalPos="90.00" arrivalSpeed="6.55" duration="62.00" routeLength="481.88" waitingTime="0.00" waitingCount="0" stopTime="0.00" timeLoss="35.61" rerouteNo="0" devices="tripinfo_8" vType="DEFAULT_VEHTYPE" speedFactor="0.94" vaporized=""/>
    <tripinfo id="12" depart="56.00" departLane="gneE5_0" departPos="5.10" departSpeed="0.00" departDelay="0.87" arrival="105.00" arrivalLane="e9_1" arrivalPos="90.00" arrivalSpeed="19.72" duration="49.00" routeLength="294.35" waitingTime="18.00" waitingCount="1" stopTime="0.00" timeLoss="35.71" rerouteNo="0" devices="tripinfo_12" vType="DEFAULT_VEHTYPE" speedFactor="1.05" vaporized=""/>
    <tripinfo id="17" depart="79.00" departLane="e13_0" departPos="5.10" departSpeed="0.00" departDelay="0.90" arrival="109.00" arrivalLane="gneE9_0" arrivalPos="87.20" arrivalSpeed="12.17" duration="30.00" routeLength="264.46" waitingTime="0.00" waitingCount="0" stopTime="0.00" timeLoss="13.33" rerouteNo="0" devices="tripinfo_17" vType="DEFAULT_VEHTYPE" speedFactor="0.94" vaporized=""/>
    <tripinfo id="22" depart="102.00" departLane="gneE2_0" departPos="5.10" departSpeed="0.00" departDelay="0.93" arrival="111.00" arrivalLane="gneE2_0" arrivalPos="90.00" arrivalSpeed="18.10" duration="9.00" routeLength="84.90" waitingTime="0.00" waitingCount="0" stopTime="0.00" timeLoss="6.72" rerouteNo="0" devices="tripinfo_22" vType="DEFAULT_VEHTYPE" speedFactor="0.98" vaporized=""/>
    <tripinfo id="7" depart="33.00" departLane="gneE12_0" departPos="5.10" departSpeed="0.00" departDelay="0.84" arrival="120.00" arrivalLane="e5_1" arrivalPos="90.00" arrivalSpeed="5.68" duration="87.00" routeLength="273.71" waitingTime="50.00" waitingCount="1" stopTime="0.00" timeLoss="74.03" rerouteNo="0" devices="tripinfo_7" vType="DEFAULT_VEHTYPE" speedFactor="0.89" vaporized=""/>
    <tripinfo id="10" depart="46.00" departLane="gneE10_0" departPos="5.10" departSpeed="0.00" departDelay="0.06" arrival="122.00" arrivalLane="gneE1_1" arrivalPos="90.00" arrivalSpeed="6.64" duration="76.00" routeLength="812.06" waitingTime="0.00" waitingCount="0" stopTime="0.00" timeLoss="34.61" rerouteNo="0" devices="tripinfo_10" vType="DEFAULT_VEHTYPE" speedFactor="1.09" vaporized=""/>
    <tripinfo id="16" depart="74.00" departLane="e12_0" departPos="5.10" departSpeed="0.00" departDelay="0.49" arrival="132.00" arrivalLane="gneE2_1" arrivalPos="90.00" arrivalSpeed="20.84" duration="58.00" routeLength="386.93" waitingTime="16.00" waitingCount="1" stopTime="0.00" timeLoss="38.30" rerouteNo="0" devices="tripinfo_16" vType="DEFAULT_VEHTYPE" speedFactor="0.88" vaporized=""/>
    <tripinfo id="23" depart="106.00" departLane="e12_0" departPos="5.10" departSpeed="0.00" departDelay="0.34" arrival="154.00" arrivalLane="gneE3_0" arrivalPos="87.20" arrivalSpeed="11.87" duration="48.00" routeLength="483.32" waitingTime="0.00" waitingCount="0" stopTime="0.00" timeLoss="21.52" rerouteNo="0" devices="tripinfo_23" vType="DEFAULT_VEHTYPE" speedFactor="0.89" vaporized=""/>
    <tripinfo id="27" depart="125.00" departLane="e14_0" departPos="5.10" departSpeed="0.00" departDelay="0.96" arrival="163.00" arrivalLane="gneE9_0" arrivalPos="87.20" arrivalSpeed="13.12" duration="38.00" routeLength="375.26" waitingTime="0.00" waitingCount="0" stopTime="0.00" timeLoss="18.34" rerouteNo="0" devices="tripinfo_27" vType="DEFAULT_VEHTYPE" speedFactor="0.95" vaporized=""/>
    <tripinfo id="21" depart="103.00" departLane="gneE9_0" departPos="5.10" departSpeed="0.00" departDelay="6.52" arrival="166.00" arrivalLane="e2_0" arrivalPos="90.00" arrivalSpeed="10.70" duration="63.00" routeLength="285.48" waitingTime="28.00" waitingCount="1" stopTime="0.00" timeLoss="51.89" rerouteNo="0" devices="tripinfo_21" vType="DEFAULT_VEHTYPE" speedFactor="1.01" vaporized=""/>
    <tripinfo id="26" depart="120.00" departLane="gneE11_0" departPos="5.10" departSpeed="0.00" departDelay="0.55" arrival="169.00" arrivalLane="gneE8_0" arrivalPos="87.20" arrivalSpeed="11.92" duration="49.00" routeLength="499.71" waitingTime="0.00" waitingCount="0" stopTime="0.00" timeLoss="16.23" rerouteNo="0" devices="tripinfo_26" vType="DEFAULT_VEHTYPE" speedFactor="0.92" vaporized=""/>
    <tripinfo id="4" depart="19.00" departLane="gneE5_0" departPos="5.10" departSpeed="0.00" departDelay="0.62" arrival="174.00" arrivalLane="gneE12_0" arrivalPos="87.20" arrivalSpeed="13.03" duration="155.00" routeLength="489.77" waitingTime="99.00" waitingCount="2" stopTime="0.00" timeLoss="132.77" rerouteNo="0" devices="tripinfo_4" vType="DEFAULT_VEHTYPE" speedFactor="1.03" vaporized=""/>
    <tripinfo id="29" depart="134.00" departLane="e14_0" departPos="5.10" departSpeed="0.00" departDelay="0.77" arrival="179.00" arrivalLane="gneE4_1" arrivalPos="87.20" arrivalSpeed="12.08" duration="45.00" routeLength="400.00" waitingTime="4.00" waitingCount="1" stopTime="0.00" timeLoss="27.31" rerouteNo="0" devices="tripinfo_29" vType="DEFAULT_VEHTYPE" speedFactor="0.93" vaporized=""/>
    <tripinfo id="19" depart="88.00" departLane="e2_0" departPos="5.10" departSpeed="0.00" departDelay="0.71" arrival="180.00" arrivalLane="gneE4_0" arrivalPos="87.20" arrivalSpeed="15.10" duration="92.00" routeLength="285.48" waitingTime="57.00" waitingCount="1" stopTime="0.00" timeLoss="80.71" rerouteNo="0" devices="tripinfo_19" vType="DEFAULT_VEHTYPE" speedFactor="1.16" vaporized=""/>
    <tripinfo id="15" depart="69.00" departLane="gneE8_0" departPos="5.10" departSpeed="0.00" departDelay="0.09" arrival="184.00" arrivalLane="gneE3_1" arrivalPos="87.20" arrivalSpeed="11.87" duration="115.00" routeLength="488.32" waitingTime="56.00" waitingCount="1" stopTime="0.00" timeLoss="86.38" rerouteNo="0" devices="tripinfo_15" vType="DEFAULT_VEHTYPE" speedFactor="0.93" vaporized=""/>
    <tripinfo id="0" depart="0.00" departLane="gneE2_0" departPos="5.10" departSpeed="0.00" departDelay="0.00" arrival="194.00" arrivalLane="e3_1" arrivalPos="90.00" arrivalSpeed="20.70" duration="194.00" routeLength="878.85" waitingTime="102.00" waitingCount="2" stopTime="0.00" timeLoss="149.06" rerouteNo="0" devices="tripinfo_0" vType="DEFAULT_VEHTYPE" speedFactor="1.06" vaporized=""/>
    <tripinfo id="31" depart="143.00" departLane="gneE11_0" departPos="5.10" departSpeed="0.00" departDelay="0.58" arrival="206.00" arrivalLane="e8_1" arrivalPos="90.00" arrivalSpeed="21.43" duration="63.00" routeLength="403.71" waitingTime="19.00" waitingCount="2" stopTime="0.00" timeLoss="46.45" rerouteNo="0" devices="tripinfo_31" vType="DEFAULT_VEHTYPE" speedFactor="1.15" vaporized=""/>
    <tripinfo id="25" depart="115.00" departLane="gneE11_0" departPos="5.10" departSpeed="0.00" departDelay="0.15" arrival="215.00" arrivalLane="gneE12_0" arrivalPos="87.20" arrivalSpeed="11.89" duration="100.00" routeLength="787.72" waitingTime="11.00" waitingCount="1" stopTime="0.00" timeLoss="52.49" rerouteNo="0" devices="tripinfo_25" vType="DEFAULT_VEHTYPE" speedFactor="0.87" vaporized=""/>
    <tripinfo id="13" depart="60.00" departLane="e9_0" departPos="5.10" departSpeed="0.00" departDelay="0.28" arrival="216.00" arrivalLane="gneE8_0" arrivalPos="87.20" arrivalSpeed="14.34" duration="156.00" routeLength="835.60" waitingTime="79.00" waitingCount="2" stopTime="0.00" timeLoss="115.70" rerouteNo="0" devices="tripinfo_13" vType="DEFAULT_VEHTYPE" speedFactor="1.12" vaporized=""/>
    <tripinfo id="24" depart="117.00" departLane="gneE1_0" departPos="5.10" departSpeed="0.00" departDelay="6.74" arrival="230.00" arrivalLane="gneE5_1" arrivalPos="87.20" arrivalSpeed="11.39" duration="113.00" routeLength="394.45" waitingTime="66.00" waitingCount="1" stopTime="0.00" timeLoss="85.74" rerouteNo="0" devices="tripinfo_24" vType="DEFAULT_VEHTYPE" speedFactor="0.83" vaporized=""/>
    <tripinfo id="28" depart="129.00" departLane="e8_0" departPos="5.10" departSpeed="0.00" departDelay="0.37" arrival="251.00" arrivalLane="gneE3_0" arrivalPos="87.20" arrivalSpeed="15.35" duration="122.00" routeLength="601.55" waitingTime="59.00" waitingCount="2" stopTime="0.00" timeLoss="95.36" rerouteNo="0" devices="tripinfo_28" vType="DEFAULT_VEHTYPE" speedFactor="1.13" vaporized=""/>
    <tripinfo id="30" depart="138.00" departLane="gneE8_0" departPos="5.10" departSpeed="0.00" departDelay="0.18" arrival="252.00" arrivalLane="gneE4_0" arrivalPos="87.20" arrivalSpeed="15.66" duration="114.00" routeLength="489.77" waitingTime="60.00" waitingCount="2" stopTime="0.00" timeLoss="95.18" rerouteNo="0" devices="tripinfo_30" vType="DEFAULT_VEHTYPE" speedFactor="1.18" vaporized=""/>
    <tripinfo id="50" depart="230.00" departLane="gneE9_0" departPos="5.10" departSpeed="0.00" departDelay="0.30" arrival="253.00" arrivalLane="e3_1" arrivalPos="90.00" arrivalSpeed="7.83" duration="23.00" routeLength="174.68" waitingTime="0.00" waitingCount="0" stopTime="0.00" timeLoss="12.60" rerouteNo="0" devices="tripinfo_50" vType="DEFAULT_VEHTYPE" speedFactor="0.85" vaporized=""/>
    <tripinfo id="38" depart="175.00" departLane="gneE8_0" departPos="5.10" departSpeed="0.00" departDelay="0.42" arrival="255.00" arrivalLane="gneE3_0" arrivalPos="87.20" arrivalSpeed="14.87" duration="80.00" routeLength="493.48" waitingTime="29.00" waitingCount="1" stopTime="0.00" timeLoss="57.22" rerouteNo="0" devices="tripinfo_38" vType="DEFAULT_VEHTYPE" speedFactor="1.10" vaporized=""/>
    <tripinfo id="47" depart="216.00" departLane="e8_0" departPos="5.10" departSpeed="0.00" departDelay="0.08" arrival="261.00" arrivalLane="gneE2_1" arrivalPos="90.00" arrivalSpeed="29.48" duration="45.00" routeLength="508.06" waitingTime="0.00" waitingCount="0" stopTime="0.00" timeLoss="20.41" rerouteNo="0" devices="tripinfo_47" vType="DEFAULT_VEHTYPE" speedFactor="0.90" vaporized=""/>
    <tripinfo id="41" depart="189.00" departLane="e7_0" departPos="5.10" departSpeed="0.00" departDelay="0.64" arrival="271.00" arrivalLane="gneE2_0" arrivalPos="90.00" arrivalSpeed="19.62" duration="82.00" routeLength="183.93" waitingTime="59.00" waitingCount="1" stopTime="0.00" timeLoss="76.24" rerouteNo="0" devices="tripinfo_41" vType="DEFAULT_VEHTYPE" speedFactor="0.96" vaporized=""/>
    <tripinfo id="36" depart="166.00" departLane="e3_0" departPos="5.10" departSpeed="0.00" departDelay="0.61" arrival="272.00" arrivalLane="e7_1" arrivalPos="90.00" arrivalSpeed="20.41" duration="106.00" routeLength="594.12" waitingTime="39.00" waitingCount="2" stopTime="0.00" timeLoss="78.52" rerouteNo="0" devices="tripinfo_36" vType="DEFAULT_VEHTYPE" speedFactor="0.97" vaporized=""/>
    <tripinfo id="45" depart="207.00" departLane="e5_0" departPos="5.10" departSpeed="0.00" departDelay="0.27" arrival="276.00" arrivalLane="gneE7_1" arrivalPos="87.20" arrivalSpeed="14.89" duration="69.00" routeLength="289.20" waitingTime="34.00" waitingCount="1" stopTime="0.00" timeLoss="56.20" rerouteNo="0" devices="tripinfo_45" vType="DEFAULT_VEHTYPE" speedFactor="1.09" vaporized=""/>
    <tripinfo id="37" depart="170.00" departLane="e12_0" departPos="5.10" departSpeed="0.00" departDelay="0.02" arrival="277.00" arrivalLane="e5_0" arrivalPos="90.00" arrivalSpeed="11.16" duration="107.00" routeLength="366.29" waitingTime="64.00" waitingCount="1" stopTime="0.00" timeLoss="94.09" rerouteNo="0" devices="tripinfo_37" vType="DEFAULT_VEHTYPE" speedFactor="1.18" vaporized=""/>
    <tripinfo id="43" depart="198.00" departLane="e9_0" departPos="5.10" departSpeed="0.00" departDelay="0.45" arrival="282.00" arrivalLane="e13_1" arrivalPos="90.00" arrivalSpeed="11.83" duration="84.00" routeLength="613.32" waitingTime="18.00" waitingCount="2" stopTime="0.00" timeLoss="55.83" rerouteNo="0" devices="tripinfo_43" vType="DEFAULT_VEHTYPE" speedFactor="1.04" vaporized=""/>
    <tripinfo id="44" depart="203.00" departLane="e8_0" departPos="5.10" departSpeed="0.00" departDelay="0.86" arrival="297.00" arrivalLane="gneE12_1" arrivalPos="87.20" arrivalSpeed="14.11" duration="94.00" routeLength="900.94" waitingTime="6.00" waitingCount="2" stopTime="0.00" timeLoss="47.76" rerouteNo="0" devices="tripinfo_44" vType="DEFAULT_VEHTYPE" speedFactor="1.04" vaporized=""/>
    <tripinfo id="34" depart="157.00" departLane="gneE1_0" departPos="5.10" departSpeed="0.00" departDelay="0.80" arrival="299.00" arrivalLane="gneE9_1" arrivalPos="87.20" arrivalSpeed="13.76" duration="142.00" routeLength="494.94" waitingTime="78.00" waitingCount="4" stopTime="0.00" timeLoss="117.47" rerouteNo="0" devices="tripinfo_34" vType="DEFAULT_VEHTYPE" speedFactor="0.99" vaporized=""/>
    <tripinfo id="40" depart="184.00" departLane="gneE12_0" departPos="5.10" departSpeed="0.00" departDelay="0.24" arrival="299.00" arrivalLane="gneE1_1" arrivalPos="90.00" arrivalSpeed="22.38" duration="115.00" routeLength="593.74" waitingTime="56.00" waitingCount="1" stopTime="0.00" timeLoss="85.06" rerouteNo="0" devices="tripinfo_40" vType="DEFAULT_VEHTYPE" speedFactor="1.03" vaporized=""/>
    <tripinfo id="42" depart="193.00" departLane="gneE6_0" departPos="5.10" departSpeed="0.00" departDelay="0.05" arrival="300.00" arrivalLane="e2_1" arrivalPos="90.00" arrivalSpeed="21.86" duration="107.00" routeLength="597.84" waitingTime="44.00" waitingCount="2" stopTime="0.00" timeLoss="81.95" rerouteNo="0" devices="tripinfo_42" vType="DEFAULT_VEHTYPE" speedFactor="1.09" vaporized=""/>
    <tripinfo id="18" depart="84.00" departLane="gneE6_0" departPos="5.10" departSpeed="0.00" departDelay="1.31" arrival="301.00" arrivalLane="gneE1_0" arrivalPos="90.00" arrivalSpeed="20.54" duration="217.00" routeLength="999.96" waitingTime="104.00" waitingCount="3" stopTime="0.00" timeLoss="162.19" rerouteNo="0" devices="tripinfo_18" vType="DEFAULT_VEHTYPE" speedFactor="0.94" vaporized=""/>
    <tripinfo id="35" depart="161.00" departLane="e9_0" departPos="5.10" departSpeed="0.00" departDelay="0.21" arrival="308.00" arrivalLane="e11_0" arrivalPos="90.00" arrivalSpeed="20.41" duration="147.00" routeLength="943.66" waitingTime="49.00" waitingCount="4" stopTime="0.00" timeLoss="99.10" rerouteNo="0" devices="tripinfo_35" vType="DEFAULT_VEHTYPE" speedFactor="1.02" vaporized=""/>
    <tripinfo id="51" depart="241.00" departLane="e9_0" departPos="5.10" departSpeed="0.00" departDelay="6.70" arrival="310.00" arrivalLane="e13_1" arrivalPos="90.00" arrivalSpeed="22.22" duration="69.00" routeLength="608.16" waitingTime="12.00" waitingCount="1" stopTime="0.00" timeLoss="44.17" rerouteNo="0" devices="tripinfo_51" vType="DEFAULT_VEHTYPE" speedFactor="1.17" vaporized=""/>
    <tripinfo id="14" depart="65.00" departLane="gneE9_0" departPos="5.10" departSpeed="0.00" departDelay="0.68" arrival="312.00" arrivalLane="e11_1" arrivalPos="90.00" arrivalSpeed="21.44" duration="247.00" routeLength="989.65" waitingTime="135.00" waitingCount="2" stopTime="0.00" timeLoss="196.16" rerouteNo="0" devices="tripinfo_14" vType="DEFAULT_VEHTYPE" speedFactor="0.99" vaporized=""/>
    <tripinfo id="55" depart="253.00" departLane="e2_0" departPos="5.10" departSpeed="0.00" departDelay="0.32" arrival="312.00" arrivalLane="gneE4_0" arrivalPos="87.20" arrivalSpeed="12.61" duration="59.00" routeLength="285.48" waitingTime="25.00" waitingCount="1" stopTime="0.00" timeLoss="46.33" rerouteNo="0" devices="tripinfo_55" vType="DEFAULT_VEHTYPE" speedFactor="1.00" vaporized=""/>
    <tripinfo id="39" depart="180.00" departLane="gneE6_0" departPos="5.10" departSpeed="0.00" departDelay="0.83" arrival="323.00" arrivalLane="e10_1" arrivalPos="90.00" arrivalSpeed="9.95" duration="143.00" routeLength="580.90" waitingTime="53.00" waitingCount="4" stopTime="0.00" timeLoss="112.79" rerouteNo="0" devices="tripinfo_39" vType="DEFAULT_VEHTYPE" speedFactor="0.90" vaporized=""/>
    <tripinfo id="52" depart="239.00" departLane="gneE10_0" departPos="5.10" departSpeed="0.00" departDelay="0.11" arrival="324.00" arrivalLane="gneE6_1" arrivalPos="87.20" arrivalSpeed="9.81" duration="85.00" routeLength="695.13" waitingTime="14.00" waitingCount="1" stopTime="0.00" timeLoss="46.25" rerouteNo="0" devices="tripinfo_52" vType="DEFAULT_VEHTYPE" speedFactor="1.02" vaporized=""/>
    <tripinfo id="62" depart="285.00" departLane="e3_0" departPos="5.10" departSpeed="0.00" departDelay="0.17" arrival="329.00" arrivalLane="gneE9_0" arrivalPos="87.20" arrivalSpeed="13.63" duration="44.00" routeLength="363.49" waitingTime="0.00" waitingCount="0" stopTime="0.00" timeLoss="24.42" rerouteNo="0" devices="tripinfo_62" vType="DEFAULT_VEHTYPE" speedFactor="1.02" vaporized=""/>
    <tripinfo id="46" depart="212.00" departLane="gneE7_0" departPos="5.10" departSpeed="0.00" departDelay="0.67" arrival="330.00" arrivalLane="e7_1" arrivalPos="90.00" arrivalSpeed="19.34" duration="118.00" routeLength="773.68" waitingTime="33.00" waitingCount="2" stopTime="0.00" timeLoss="79.72" rerouteNo="0" devices="tripinfo_46" vType="DEFAULT_VEHTYPE" speedFactor="1.00" vaporized=""/>
    <tripinfo id="20" depart="95.00" departLane="gneE3_0" departPos="5.10" departSpeed="0.00" departDelay="3.12" arrival="335.00" arrivalLane="gneE4_1" arrivalPos="87.20" arrivalSpeed="13.36" duration="240.00" routeLength="902.22" waitingTime="137.00" waitingCount="4" stopTime="0.00" timeLoss="192.77" rerouteNo="0" devices="tripinfo_20" vType="DEFAULT_VEHTYPE" speedFactor="1.02" vaporized=""/>
    <tripinfo id="57" depart="262.00" departLane="e13_0" departPos="5.10" departSpeed="0.00" departDelay="0.14" arrival="337.00" arrivalLane="e7_1" arrivalPos="90.00" arrivalSpeed="19.29" duration="75.00" routeLength="866.26" waitingTime="0.00" waitingCount="0" stopTime="0.00" timeLoss="39.12" rerouteNo="0" devices="tripinfo_57" vType="DEFAULT_VEHTYPE" speedFactor="1.14" vaporized=""/>
    <tripinfo id="48" depart="221.00" departLane="gneE8_0" departPos="5.10" departSpeed="0.00" departDelay="0.48" arrival="356.00" arrivalLane="e3_1" arrivalPos="90.00" arrivalSpeed="6.21" duration="135.00" routeLength="979.33" waitingTime="30.00" waitingCount="1" stopTime="0.00" timeLoss="79.42" rerouteNo="0" devices="tripinfo_48" vType="DEFAULT_VEHTYPE" speedFactor="0.88" vaporized=""/>
    <tripinfo id="70" depart="322.00" departLane="gneE6_0" departPos="5.10" departSpeed="0.00" departDelay="0.41" arrival="356.00" arrivalLane="gneE11_0" arrivalPos="87.20" arrivalSpeed="14.01" duration="34.00" routeLength="390.74" waitingTime="0.00" waitingCount="0" stopTime="0.00" timeLoss="14.51" rerouteNo="0" devices="tripinfo_70" vType="DEFAULT_VEHTYPE" speedFactor="1.02" vaporized=""/>
    <tripinfo id="59" depart="273.00" departLane="e5_0" departPos="5.10" departSpeed="0.00" departDelay="1.95" arrival="360.00" arrivalLane="gneE3_1" arrivalPos="87.20" arrivalSpeed="13.27" duration="87.00" routeLength="587.51" waitingTime="21.00" waitingCount="2" stopTime="0.00" timeLoss="58.39" rerouteNo="0" devices="tripinfo_59" vType="DEFAULT_VEHTYPE" speedFactor="0.97" vaporized=""/>
    <tripinfo id="53" depart="244.00" departLane="e5_0" departPos="5.10" departSpeed="0.00" departDelay="0.51" arrival="363.00" arrivalLane="e2_0" arrivalPos="90.00" arrivalSpeed="20.57" duration="119.00" routeLength="592.68" waitingTime="45.00" waitingCount="3" stopTime="0.00" timeLoss="94.10" rerouteNo="0" devices="tripinfo_53" vType="DEFAULT_VEHTYPE" speedFactor="1.10" vaporized=""/>
    <tripinfo id="33" depart="152.00" departLane="gneE6_0" departPos="5.10" departSpeed="0.00" departDelay="0.39" arrival="364.00" arrivalLane="gneE5_0" arrivalPos="87.20" arrivalSpeed="15.86" duration="212.00" routeLength="902.22" waitingTime="116.00" waitingCount="3" stopTime="0.00" timeLoss="171.18" rerouteNo="0" devices="tripinfo_33" vType="DEFAULT_VEHTYPE" speedFactor="1.17" vaporized=""/>
    <tripinfo id="75" depart="345.00" departLane="gneE9_0" departPos="5.10" departSpeed="0.00" departDelay="0.44" arrival="364.00" arrivalLane="e3_0" arrivalPos="90.00" arrivalSpeed="12.80" duration="19.00" routeLength="174.68" waitingTime="0.00" waitingCount="0" stopTime="0.00" timeLoss="10.61" rerouteNo="0" devices="tripinfo_75" vType="DEFAULT_VEHTYPE" speedFactor="0.98" vaporized=""/>
    <tripinfo id="56" depart="260.00" departLane="e12_0" departPos="5.10" departSpeed="0.00" departDelay="2.73" arrival="366.00" arrivalLane="e13_1" arrivalPos="90.00" arrivalSpeed="20.20" duration="106.00" routeLength="475.65" waitingTime="38.00" waitingCount="2" stopTime="0.00" timeLoss="84.06" rerouteNo="0" devices="tripinfo_56" vType="DEFAULT_VEHTYPE" speedFactor="0.90" vaporized=""/>
    <tripinfo id="32" depart="148.00" departLane="e7_0" departPos="5.10" departSpeed="0.00" departDelay="0.99" arrival="376.00" arrivalLane="gneE1_1" arrivalPos="90.00" arrivalSpeed="19.38" duration="228.00" routeLength="889.54" waitingTime="122.00" waitingCount="4" stopTime="0.00" timeLoss="186.59" rerouteNo="0" devices="tripinfo_32" vType="DEFAULT_VEHTYPE" speedFactor="1.01" vaporized=""/>
    <tripinfo id="61" depart="281.00" departLane="gneE4_0" departPos="5.10" departSpeed="0.00" departDelay="0.76" arrival="380.00" arrivalLane="gneE8_0" arrivalPos="87.20" arrivalSpeed="14.66" duration="99.00" routeLength="705.45" waitingTime="27.00" waitingCount="2" stopTime="0.00" timeLoss="63.54" rerouteNo="0" devices="tripinfo_61" vType="DEFAULT_VEHTYPE" speedFactor="1.12" vaporized=""/>
    <tripinfo id="66" depart="304.00" departLane="gneE11_0" departPos="5.10" departSpeed="0.00" departDelay="0.79" arrival="389.00" arrivalLane="gneE6_0" arrivalPos="87.20" arrivalSpeed="11.92" duration="85.00" routeLength="584.72" waitingTime="17.00" waitingCount="2" stopTime="0.00" timeLoss="51.24" rerouteNo="0" devices="tripinfo_66" vType="DEFAULT_VEHTYPE" speedFactor="0.91" vaporized=""/>
    <tripinfo id="73" depart="336.00" departLane="e7_0" departPos="5.10" departSpeed="0.00" departDelay="0.63" arrival="394.00" arrivalLane="e2_0" arrivalPos="90.00" arrivalSpeed="7.91" duration="58.00" routeLength="508.06" waitingTime="0.00" waitingCount="0" stopTime="0.00" timeLoss="38.38" rerouteNo="0" devices="tripinfo_73" vType="DEFAULT_VEHTYPE" speedFactor="1.06" vaporized=""/>
    <tripinfo id="80" depart="368.00" departLane="e11_0" departPos="5.10" departSpeed="0.00" departDelay="0.47" arrival="395.00" arrivalLane="gneE12_1" arrivalPos="87.20" arrivalSpeed="13.62" duration="27.00" routeLength="290.64" waitingTime="0.00" waitingCount="0" stopTime="0.00" timeLoss="14.56" rerouteNo="0" devices="tripinfo_80" vType="DEFAULT_VEHTYPE" speedFactor="1.03" vaporized=""/>
    <tripinfo id="49" depart="226.00" departLane="gneE7_0" departPos="5.10" departSpeed="0.00" departDelay="0.89" arrival="397.00" arrivalLane="e11_1" arrivalPos="90.00" arrivalSpeed="18.68" duration="171.00" routeLength="1084.59" waitingTime="42.00" waitingCount="3" stopTime="0.00" timeLoss="103.42" rerouteNo="0" devices="tripinfo_49" vType="DEFAULT_VEHTYPE" speedFactor="0.85" vaporized=""/>
    <tripinfo id="87" depart="400.00" departLane="gneE7_0" departPos="5.10" departSpeed="0.00" departDelay="0.31" arrival="409.00" arrivalLane="gneE7_0" arrivalPos="87.20" arrivalSpeed="13.42" duration="9.00" routeLength="82.10" waitingTime="0.00" waitingCount="0" stopTime="0.00" timeLoss="3.31" rerouteNo="0" devices="tripinfo_87" vType="DEFAULT_VEHTYPE" speedFactor="1.04" vaporized=""/>
    <tripinfo id="83" depart="382.00" departLane="gneE2_0" departPos="5.10" departSpeed="0.00" departDelay="0.69" arrival="412.00" arrivalLane="gneE6_0" arrivalPos="87.20" arrivalSpeed="13.27" duration="30.00" routeLength="264.46" waitingTime="0.00" waitingCount="0" stopTime="0.00" timeLoss="12.68" rerouteNo="0" devices="tripinfo_83" vType="DEFAULT_VEHTYPE" speedFactor="0.97" vaporized=""/>
    <tripinfo id="86" depart="396.00" departLane="gneE3_0" departPos="5.10" departSpeed="0.00" departDelay="0.91" arrival="415.00" arrivalLane="gneE5_0" arrivalPos="87.20" arrivalSpeed="12.74" duration="19.00" routeLength="187.36" waitingTime="0.00" waitingCount="0" stopTime="0.00" timeLoss="4.34" rerouteNo="0" devices="tripinfo_86" vType="DEFAULT_VEHTYPE" speedFactor="1.00" vaporized=""/>
    <tripinfo id="84" depart="390.00" departLane="gneE3_0" departPos="5.10" departSpeed="0.00" departDelay="4.10" arrival="416.00" arrivalLane="gneE1_0" arrivalPos="90.00" arrivalSpeed="17.98" duration="26.00" routeLength="295.42" waitingTime="0.00" waitingCount="0" stopTime="0.00" timeLoss="10.40" rerouteNo="0" devices="tripinfo_84" vType="DEFAULT_VEHTYPE" speedFactor="1.15" vaporized=""/>
    <tripinfo id="89" depart="409.00" departLane="e11_0" departPos="5.10" departSpeed="0.00" departDelay="0.13" arrival="423.00" arrivalLane="e12_1" arrivalPos="90.00" arrivalSpeed="26.19" duration="14.00" routeLength="195.70" waitingTime="0.00" waitingCount="0" stopTime="0.00" timeLoss="9.11" rerouteNo="0" devices="tripinfo_89" vType="DEFAULT_VEHTYPE" speedFactor="1.02" vaporized=""/>
    <tripinfo id="64" depart="295.00" departLane="e9_0" departPos="5.10" departSpeed="0.00" departDelay="0.98" arrival="439.00" arrivalLane="e3_1" arrivalPos="90.00" arrivalSpeed="19.46" duration="144.00" routeLength="900.94" waitingTime="46.00" waitingCount="3" stopTime="0.00" timeLoss="94.16" rerouteNo="0" devices="tripinfo_64" vType="DEFAULT_VEHTYPE" speedFactor="0.94" vaporized=""/>
    <tripinfo id="95" depart="437.00" departLane="gneE2_0" departPos="5.10" departSpeed="0.00" departDelay="0.56" arrival="447.00" arrivalLane="gneE2_0" arrivalPos="90.00" arrivalSpeed="18.66" duration="10.00" routeLength="84.90" waitingTime="0.00" waitingCount="0" stopTime="0.00" timeLoss="7.66" rerouteNo="0" devices="tripinfo_95" vType="DEFAULT_VEHTYPE" speedFactor="1.06" vaporized=""/>
    <tripinfo id="94" depart="432.00" departLane="gneE7_0" departPos="5.10" departSpeed="0.00" departDelay="0.15" arrival="450.00" arrivalLane="gneE9_0" arrivalPos="87.20" arrivalSpeed="14.59" duration="18.00" routeLength="171.88" waitingTime="0.00" waitingCount="0" stopTime="0.00" timeLoss="6.18" rerouteNo="0" devices="tripinfo_94" vType="DEFAULT_VEHTYPE" speedFactor="1.09" vaporized=""/>
    <tripinfo id="93" depart="428.00" departLane="e3_0" departPos="5.10" departSpeed="0.00" departDelay="0.75" arrival="468.00" arrivalLane="gneE9_0" arrivalPos="87.20" arrivalSpeed="11.59" duration="40.00" routeLength="363.49" waitingTime="0.00" waitingCount="0" stopTime="0.00" timeLoss="19.90" rerouteNo="0" devices="tripinfo_93" vType="DEFAULT_VEHTYPE" speedFactor="0.92" vaporized=""/>