<?xml version="1.0" encoding="UTF-8"?>

<!-- generated on 2022-02-21 21:45:33 by Eclipse SUMO GUI Version 1.12.0
<configuration xmlns:xsi="http://www.w3.org/2001/XMLSchema-instance" xsi:noNamespaceSchemaLocation="http://sumo.dlr.de/xsd/sumoConfiguration.xsd">

    <input>
        <net-file value="configs/SMARTCOMP/grid-3x3.net.xml"/>
        <route-files value="configs/SMARTCOMP/traffic.rou.xml"/>
    </input>

    <output>
        <tripinfo-output value=".tmp-tripinfo.xml"/>
    </output>

    <routing>
        <device.rerouting.period value="60"/>
    </routing>

    <report>
        <no-warnings value="true"/>
        <no-step-log value="true"/>
    </report>

    <traci_server>
        <remote-port value="50431"/>
    </traci_server>

</configuration>
-->

<tripinfos xmlns:xsi="http://www.w3.org/2001/XMLSchema-instance" xsi:noNamespaceSchemaLocation="http://sumo.dlr.de/xsd/tripinfo_file.xsd">
</tripinfos>
