<?xml version="1.0" encoding="UTF-8"?>

<!-- generated on 2022-02-16 14:26:45 by Eclipse SUMO sumo Version 1.12.0
<configuration xmlns:xsi="http://www.w3.org/2001/XMLSchema-instance" xsi:noNamespaceSchemaLocation="http://sumo.dlr.de/xsd/sumoConfiguration.xsd">

    <input>
        <net-file value="configs/SMARTCOMP/grid-alt.net.xml"/>
        <route-files value="configs/SMARTCOMP/traffic.rou.xml"/>
    </input>

    <output>
        <tripinfo-output value=".tmp-tripinfo.xml"/>
    </output>

    <routing>
        <device.rerouting.period value="60"/>
    </routing>

    <report>
        <no-warnings value="true"/>
        <no-step-log value="true"/>
    </report>

</configuration>
-->

<tripinfos xmlns:xsi="http://www.w3.org/2001/XMLSchema-instance" xsi:noNamespaceSchemaLocation="http://sumo.dlr.de/xsd/tripinfo_file.xsd">
    <tripinfo id="10" depart="2.00" departLane="left0A0_0" departPos="5.10" departSpeed="0.00" departDelay="0.96" arrival="62.00" arrivalLane="C0right0_0" arrivalPos="186.40" arrivalSpeed="14.48" duration="60.00" routeLength="794.90" waitingTime="0.00" waitingCount="0" stopTime="0.00" timeLoss="5.37" rerouteNo="0" devices="tripinfo_10" vType="DEFAULT_VEHTYPE" speedFactor="1.06" vaporized=""/>
    <tripinfo id="48" depart="5.00" departLane="top0A2_0" departPos="5.10" departSpeed="0.00" departDelay="0.00" arrival="77.00" arrivalLane="A0bottom0_0" arrivalPos="186.40" arrivalSpeed="13.66" duration="72.00" routeLength="794.90" waitingTime="4.00" waitingCount="1" stopTime="0.00" timeLoss="16.50" rerouteNo="0" devices="tripinfo_48" vType="DEFAULT_VEHTYPE" speedFactor="1.05" vaporized=""/>
    <tripinfo id="208" depart="22.00" departLane="top0A2_0" departPos="5.10" departSpeed="0.00" departDelay="0.33" arrival="78.00" arrivalLane="A0bottom0_0" arrivalPos="186.40" arrivalSpeed="15.67" duration="56.00" routeLength="794.90" waitingTime="0.00" waitingCount="0" stopTime="0.00" timeLoss="6.39" rerouteNo="0" devices="tripinfo_208" vType="DEFAULT_VEHTYPE" speedFactor="1.16" vaporized=""/>
    <tripinfo id="219" depart="23.00" departLane="left1A1_1" departPos="5.10" departSpeed="0.00" departDelay="0.19" arrival="86.00" arrivalLane="C1right1_0" arrivalPos="186.40" arrivalSpeed="12.84" duration="63.00" routeLength="794.90" waitingTime="0.00" waitingCount="0" stopTime="0.00" timeLoss="5.93" rerouteNo="0" devices="tripinfo_219" vType="DEFAULT_VEHTYPE" speedFactor="1.01" vaporized=""/>
    <tripinfo id="205" depart="22.00" departLane="left1A1_0" departPos="5.10" departSpeed="0.00" departDelay="0.65" arrival="90.00" arrivalLane="C1right1_0" arrivalPos="186.40" arrivalSpeed="12.20" duration="68.00" routeLength="794.90" waitingTime="0.00" waitingCount="0" stopTime="0.00" timeLoss="6.16" rerouteNo="0" devices="tripinfo_205" vType="DEFAULT_VEHTYPE" speedFactor="0.94" vaporized=""/>
    <tripinfo id="132" depart="14.00" departLane="bottom2C0_0" departPos="5.10" departSpeed="0.00" departDelay="0.25" arrival="93.00" arrivalLane="C0C1_0" arrivalPos="176.00" arrivalSpeed="4.55" duration="79.00" routeLength="384.50" waitingTime="41.00" waitingCount="1" stopTime="0.00" timeLoss="52.02" rerouteNo="0" devices="tripinfo_132" vType="DEFAULT_VEHTYPE" speedFactor="1.03" vaporized=""/>
    <tripinfo id="15" depart="2.00" departLane="left2A2_0" departPos="5.10" departSpeed="0.00" departDelay="0.44" arrival="96.00" arrivalLane="C2right2_0" arrivalPos="186.40" arrivalSpeed="12.37" duration="94.00" routeLength="794.90" waitingTime="22.00" waitingCount="1" stopTime="0.00" timeLoss="32.77" rerouteNo="0" devices="tripinfo_15" vType="DEFAULT_VEHTYPE" speedFactor="0.94" vaporized=""/>
    <tripinfo id="210" depart="22.00" departLane="left2A2_0" departPos="5.10" departSpeed="0.00" departDelay="0.12" arrival="98.00" arrivalLane="C2right2_0" arrivalPos="186.40" arrivalSpeed="13.71" duration="76.00" routeLength="794.90" waitingTime="2.00" waitingCount="1" stopTime="0.00" timeLoss="19.14" rerouteNo="0" devices="tripinfo_210" vType="DEFAULT_VEHTYPE" speedFactor="1.02" vaporized=""/>
    <tripinfo id="220" depart="25.00" departLane="left2A2_0" departPos="5.10" departSpeed="0.00" departDelay="2.08" arrival="100.00" arrivalLane="C2right2_0" arrivalPos="186.40" arrivalSpeed="12.94" duration="75.00" routeLength="794.90" waitingTime="2.00" waitingCount="1" stopTime="0.00" timeLoss="15.49" rerouteNo="0" devices="tripinfo_220" vType="DEFAULT_VEHTYPE" speedFactor="0.98" vaporized=""/>
    <tripinfo id="42" depart="5.00" departLane="right2C2_0" departPos="5.10" departSpeed="0.00" departDelay="0.63" arrival="103.00" arrivalLane="A2left2_0" arrivalPos="192.80" arrivalSpeed="11.11" duration="98.00" routeLength="794.90" waitingTime="19.00" waitingCount="1" stopTime="0.00" timeLoss="29.07" rerouteNo="0" devices="tripinfo_42" vType="DEFAULT_VEHTYPE" speedFactor="0.83" vaporized=""/>
    <tripinfo id="280" depart="30.00" departLane="right2C2_0" departPos="5.10" departSpeed="0.00" departDelay="0.83" arrival="105.00" arrivalLane="A2left2_0" arrivalPos="192.80" arrivalSpeed="15.44" duration="75.00" routeLength="794.90" waitingTime="0.00" waitingCount="0" stopTime="0.00" timeLoss="24.80" rerouteNo="0" devices="tripinfo_280" vType="DEFAULT_VEHTYPE" speedFactor="1.15" vaporized=""/>
    <tripinfo id="328" depart="35.00" departLane="B1B2_0" departPos="5.10" departSpeed="0.00" departDelay="0.83" arrival="106.00" arrivalLane="B2top1_0" arrivalPos="192.80" arrivalSpeed="15.29" duration="71.00" routeLength="384.50" waitingTime="35.00" waitingCount="1" stopTime="0.00" timeLoss="47.34" rerouteNo="0" devices="tripinfo_328" vType="DEFAULT_VEHTYPE" speedFactor="1.18" vaporized=""/>
    <tripinfo id="24" depart="3.00" departLane="bottom2C0_0" departPos="5.10" departSpeed="0.00" departDelay="0.50" arrival="108.00" arrivalLane="C2top2_0" arrivalPos="192.80" arrivalSpeed="13.20" duration="105.00" routeLength="794.90" waitingTime="35.00" waitingCount="1" stopTime="0.00" timeLoss="48.05" rerouteNo="0" devices="tripinfo_24" vType="DEFAULT_VEHTYPE" speedFactor="1.01" vaporized=""/>
    <tripinfo id="31" depart="4.00" departLane="top2C2_0" departPos="5.10" departSpeed="0.00" departDelay="0.77" arrival="108.00" arrivalLane="C0bottom2_0" arrivalPos="186.40" arrivalSpeed="13.99" duration="104.00" routeLength="794.90" waitingTime="37.00" waitingCount="1" stopTime="0.00" timeLoss="48.28" rerouteNo="0" devices="tripinfo_31" vType="DEFAULT_VEHTYPE" speedFactor="1.03" vaporized=""/>
    <tripinfo id="177" depart="19.00" departLane="right1C1_1" departPos="5.10" departSpeed="0.00" departDelay="0.56" arrival="109.00" arrivalLane="A1left1_0" arrivalPos="192.80" arrivalSpeed="12.09" duration="90.00" routeLength="794.90" waitingTime="15.00" waitingCount="2" stopTime="0.00" timeLoss="28.51" rerouteNo="0" devices="tripinfo_177" vType="DEFAULT_VEHTYPE" speedFactor="0.94" vaporized=""/>
    <tripinfo id="249" depart="26.00" departLane="bottom0A0_0" departPos="5.10" departSpeed="0.00" departDelay="0.06" arrival="109.00" arrivalLane="A2top0_0" arrivalPos="192.80" arrivalSpeed="12.42" duration="83.00" routeLength="794.90" waitingTime="8.00" waitingCount="1" stopTime="0.00" timeLoss="20.33" rerouteNo="0" devices="tripinfo_249" vType="DEFAULT_VEHTYPE" speedFactor="0.92" vaporized=""/>
    <tripinfo id="264" depart="28.00" departLane="right1C1_0" departPos="5.10" departSpeed="0.00" departDelay="0.50" arrival="109.00" arrivalLane="A1left1_1" arrivalPos="192.80" arrivalSpeed="11.67" duration="81.00" routeLength="794.90" waitingTime="5.00" waitingCount="1" stopTime="0.00" timeLoss="19.37" rerouteNo="0" devices="tripinfo_264" vType="DEFAULT_VEHTYPE" speedFactor="0.93" vaporized=""/>
    <tripinfo id="250" depart="29.00" departLane="bottom0A0_0" departPos="5.10" departSpeed="0.00" departDelay="2.96" arrival="111.00" arrivalLane="A2top0_0" arrivalPos="192.80" arrivalSpeed="12.11" duration="82.00" routeLength="794.90" waitingTime="7.00" waitingCount="1" stopTime="0.00" timeLoss="21.12" rerouteNo="0" devices="tripinfo_250" vType="DEFAULT_VEHTYPE" speedFactor="0.95" vaporized=""/>
    <tripinfo id="350" depart="37.00" departLane="right1C1_1" departPos="5.10" departSpeed="0.00" departDelay="0.54" arrival="111.00" arrivalLane="A1left1_1" arrivalPos="192.80" arrivalSpeed="14.87" duration="74.00" routeLength="794.90" waitingTime="4.00" waitingCount="1" stopTime="0.00" timeLoss="20.93" rerouteNo="0" devices="tripinfo_350" vType="DEFAULT_VEHTYPE" speedFactor="1.09" vaporized=""/>
    <tripinfo id="176" depart="19.00" departLane="right1C1_0" departPos="5.10" departSpeed="0.00" departDelay="0.67" arrival="112.00" arrivalLane="A1left1_0" arrivalPos="192.80" arrivalSpeed="11.91" duration="93.00" routeLength="794.90" waitingTime="12.00" waitingCount="2" stopTime="0.00" timeLoss="27.33" rerouteNo="0" devices="tripinfo_176" vType="DEFAULT_VEHTYPE" speedFactor="0.88" vaporized=""/>
    <tripinfo id="347" depart="37.00" departLane="bottom0A0_0" departPos="5.10" departSpeed="0.00" departDelay="0.85" arrival="113.00" arrivalLane="A2top0_0" arrivalPos="192.80" arrivalSpeed="12.07" duration="76.00" routeLength="794.90" waitingTime="3.00" waitingCount="1" stopTime="0.00" timeLoss="15.41" rerouteNo="0" devices="tripinfo_347" vType="DEFAULT_VEHTYPE" speedFactor="0.96" vaporized=""/>
    <tripinfo id="370" depart="40.00" departLane="bottom0A0_0" departPos="5.10" departSpeed="0.00" departDelay="1.46" arrival="114.00" arrivalLane="A2top0_0" arrivalPos="192.80" arrivalSpeed="13.62" duration="74.00" routeLength="794.90" waitingTime="2.00" waitingCount="1" stopTime="0.00" timeLoss="18.69" rerouteNo="0" devices="tripinfo_370" vType="DEFAULT_VEHTYPE" speedFactor="1.04" vaporized=""/>
    <tripinfo id="266" depart="28.00" departLane="right0C0_0" departPos="5.10" departSpeed="0.00" departDelay="0.29" arrival="119.00" arrivalLane="A0left0_0" arrivalPos="192.80" arrivalSpeed="16.07" duration="91.00" routeLength="794.90" waitingTime="29.00" waitingCount="1" stopTime="0.00" timeLoss="42.28" rerouteNo="0" devices="tripinfo_266" vType="DEFAULT_VEHTYPE" speedFactor="1.18" vaporized=""/>
    <tripinfo id="295" depart="31.00" departLane="right0C0_1" departPos="5.10" departSpeed="0.00" departDelay="0.27" arrival="120.00" arrivalLane="A0left0_0" arrivalPos="192.80" arrivalSpeed="16.04" duration="89.00" routeLength="794.90" waitingTime="26.00" waitingCount="1" stopTime="0.00" timeLoss="39.32" rerouteNo="0" devices="tripinfo_295" vType="DEFAULT_VEHTYPE" speedFactor="1.17" vaporized=""/>
    <tripinfo id="28" depart="3.00" departLane="bottom1B0_0" departPos="5.10" departSpeed="0.00" departDelay="0.08" arrival="121.00" arrivalLane="B2top1_0" arrivalPos="192.80" arrivalSpeed="14.08" duration="118.00" routeLength="794.90" waitingTime="50.00" waitingCount="2" stopTime="0.00" timeLoss="65.01" rerouteNo="0" devices="tripinfo_28" vType="DEFAULT_VEHTYPE" speedFactor="1.08" vaporized=""/>
    <tripinfo id="121" depart="13.00" departLane="bottom1B0_0" departPos="5.10" departSpeed="0.00" departDelay="0.40" arrival="121.00" arrivalLane="B2top1_1" arrivalPos="192.80" arrivalSpeed="14.00" duration="108.00" routeLength="794.90" waitingTime="38.00" waitingCount="2" stopTime="0.00" timeLoss="55.22" rerouteNo="0" devices="tripinfo_121" vType="DEFAULT_VEHTYPE" speedFactor="1.09" vaporized=""/>
    <tripinfo id="613" depart="64.00" departLane="right0C0_0" departPos="5.10" departSpeed="0.00" departDelay="0.15" arrival="122.00" arrivalLane="A0left0_2" arrivalPos="192.80" arrivalSpeed="15.75" duration="58.00" routeLength="794.90" waitingTime="0.00" waitingCount="0" stopTime="0.00" timeLoss="7.68" rerouteNo="0" devices="tripinfo_613" vType="DEFAULT_VEHTYPE" speedFactor="1.14" vaporized=""/>
    <tripinfo id="319" depart="34.00" departLane="right0C0_2" departPos="5.10" departSpeed="0.00" departDelay="0.77" arrival="123.00" arrivalLane="A0left0_1" arrivalPos="192.80" arrivalSpeed="14.15" duration="89.00" routeLength="794.90" waitingTime="22.00" waitingCount="1" stopTime="0.00" timeLoss="32.23" rerouteNo="0" devices="tripinfo_319" vType="DEFAULT_VEHTYPE" speedFactor="1.02" vaporized=""/>
    <tripinfo id="152" depart="16.00" departLane="top2C2_1" departPos="5.10" departSpeed="0.00" departDelay="0.17" arrival="124.00" arrivalLane="C0bottom2_0" arrivalPos="186.40" arrivalSpeed="12.98" duration="108.00" routeLength="794.90" waitingTime="38.00" waitingCount="1" stopTime="0.00" timeLoss="49.46" rerouteNo="0" devices="tripinfo_152" vType="DEFAULT_VEHTYPE" speedFactor="0.99" vaporized=""/>
    <tripinfo id="87" depart="10.00" departLane="bottom2C0_1" departPos="5.10" departSpeed="0.00" departDelay="0.94" arrival="128.00" arrivalLane="C2top2_0" arrivalPos="192.80" arrivalSpeed="11.36" duration="118.00" routeLength="794.90" waitingTime="42.00" waitingCount="1" stopTime="0.00" timeLoss="52.65" rerouteNo="0" devices="tripinfo_87" vType="DEFAULT_VEHTYPE" speedFactor="0.89" vaporized=""/>
    <tripinfo id="107" depart="12.00" departLane="bottom2C0_2" departPos="5.10" departSpeed="0.00" departDelay="0.85" arrival="128.00" arrivalLane="C2top2_1" arrivalPos="192.80" arrivalSpeed="11.83" duration="116.00" routeLength="794.90" waitingTime="37.00" waitingCount="1" stopTime="0.00" timeLoss="49.10" rerouteNo="0" devices="tripinfo_107" vType="DEFAULT_VEHTYPE" speedFactor="0.86" vaporized=""/>
    <tripinfo id="101" depart="11.00" departLane="bottom1B0_1" departPos="5.10" departSpeed="0.00" departDelay="0.48" arrival="129.00" arrivalLane="B2top1_0" arrivalPos="192.80" arrivalSpeed="12.48" duration="118.00" routeLength="794.90" waitingTime="37.00" waitingCount="2" stopTime="0.00" timeLoss="56.14" rerouteNo="0" devices="tripinfo_101" vType="DEFAULT_VEHTYPE" speedFactor="0.94" vaporized=""/>
    <tripinfo id="341" depart="36.00" departLane="right0C0_0" departPos="5.10" departSpeed="0.00" departDelay="0.48" arrival="129.00" arrivalLane="A0left0_0" arrivalPos="192.80" arrivalSpeed="12.35" duration="93.00" routeLength="794.90" waitingTime="17.00" waitingCount="1" stopTime="0.00" timeLoss="28.90" rerouteNo="0" devices="tripinfo_341" vType="DEFAULT_VEHTYPE" speedFactor="0.90" vaporized=""/>
    <tripinfo id="635" depart="67.00" departLane="bottom1B0_1" departPos="5.10" departSpeed="0.00" departDelay="0.85" arrival="130.00" arrivalLane="B2top1_0" arrivalPos="192.80" arrivalSpeed="13.51" duration="63.00" routeLength="794.90" waitingTime="0.00" waitingCount="0" stopTime="0.00" timeLoss="6.49" rerouteNo="0" devices="tripinfo_635" vType="DEFAULT_VEHTYPE" speedFactor="1.02" vaporized=""/>
    <tripinfo id="548" depart="58.00" departLane="bottom1B0_0" departPos="5.10" departSpeed="0.00" departDelay="0.92" arrival="133.00" arrivalLane="B2top1_0" arrivalPos="192.80" arrivalSpeed="11.19" duration="75.00" routeLength="794.90" waitingTime="0.00" waitingCount="0" stopTime="0.00" timeLoss="6.91" rerouteNo="0" devices="tripinfo_548" vType="DEFAULT_VEHTYPE" speedFactor="0.85" vaporized=""/>
    <tripinfo id="794" depart="85.00" departLane="left0A0_2" departPos="5.10" departSpeed="0.00" departDelay="2.29" arrival="138.00" arrivalLane="B0C0_2" arrivalPos="176.00" arrivalSpeed="6.47" duration="53.00" routeLength="581.30" waitingTime="4.00" waitingCount="1" stopTime="0.00" timeLoss="14.21" rerouteNo="0" devices="tripinfo_794" vType="DEFAULT_VEHTYPE" speedFactor="1.09" vaporized=""/>
    <tripinfo id="309" depart="33.00" departLane="bottom2C0_0" departPos="5.10" departSpeed="0.00" departDelay="0.81" arrival="139.00" arrivalLane="C2top2_0" arrivalPos="192.80" arrivalSpeed="13.36" duration="106.00" routeLength="794.90" waitingTime="37.00" waitingCount="1" stopTime="0.00" timeLoss="48.24" rerouteNo="0" devices="tripinfo_309" vType="DEFAULT_VEHTYPE" speedFactor="0.99" vaporized=""/>
    <tripinfo id="764" depart="80.00" departLane="bottom2C0_1" departPos="5.10" departSpeed="0.00" departDelay="0.42" arrival="141.00" arrivalLane="C2top2_0" arrivalPos="192.80" arrivalSpeed="14.06" duration="61.00" routeLength="794.90" waitingTime="0.00" waitingCount="0" stopTime="0.00" timeLoss="6.17" rerouteNo="0" devices="tripinfo_764" vType="DEFAULT_VEHTYPE" speedFactor="1.06" vaporized=""/>
    <tripinfo id="235" depart="25.00" departLane="top2C2_1" departPos="5.10" departSpeed="0.00" departDelay="0.52" arrival="144.00" arrivalLane="C0bottom2_0" arrivalPos="186.40" arrivalSpeed="12.08" duration="119.00" routeLength="794.90" waitingTime="43.00" waitingCount="1" stopTime="0.00" timeLoss="53.33" rerouteNo="0" devices="tripinfo_235" vType="DEFAULT_VEHTYPE" speedFactor="0.87" vaporized=""/>
    <tripinfo id="777" depart="81.00" departLane="bottom2C0_2" departPos="5.10" departSpeed="0.00" departDelay="0.06" arrival="146.00" arrivalLane="C2top2_0" arrivalPos="192.80" arrivalSpeed="13.23" duration="65.00" routeLength="794.90" waitingTime="0.00" waitingCount="0" stopTime="0.00" timeLoss="6.36" rerouteNo="0" devices="tripinfo_777" vType="DEFAULT_VEHTYPE" speedFactor="0.98" vaporized=""/>
    <tripinfo id="149" depart="16.00" departLane="left0A0_1" departPos="5.10" departSpeed="0.00" departDelay="0.48" arrival="152.00" arrivalLane="C0right0_0" arrivalPos="186.40" arrivalSpeed="15.18" duration="136.00" routeLength="794.90" waitingTime="67.00" waitingCount="2" stopTime="0.00" timeLoss="84.81" rerouteNo="0" devices="tripinfo_149" vType="DEFAULT_VEHTYPE" speedFactor="1.12" vaporized=""/>
    <tripinfo id="145" depart="16.00" departLane="top1B2_0" departPos="5.10" departSpeed="0.00" departDelay="0.90" arrival="153.00" arrivalLane="B0bottom1_0" arrivalPos="186.40" arrivalSpeed="13.52" duration="137.00" routeLength="794.90" waitingTime="66.00" waitingCount="2" stopTime="0.00" timeLoss="81.98" rerouteNo="0" devices="tripinfo_145" vType="DEFAULT_VEHTYPE" speedFactor="1.05" vaporized=""/>
    <tripinfo id="173" depart="19.00" departLane="top1B2_1" departPos="5.10" departSpeed="0.00" departDelay="0.98" arrival="154.00" arrivalLane="B0bottom1_1" arrivalPos="186.40" arrivalSpeed="12.54" duration="135.00" routeLength="794.90" waitingTime="55.00" waitingCount="2" stopTime="0.00" timeLoss="73.23" rerouteNo="0" devices="tripinfo_173" vType="DEFAULT_VEHTYPE" speedFactor="0.93" vaporized=""/>
    <tripinfo id="665" depart="70.00" departLane="left0A0_2" departPos="5.10" departSpeed="0.00" departDelay="0.73" arrival="154.00" arrivalLane="C0right0_0" arrivalPos="186.40" arrivalSpeed="13.45" duration="84.00" routeLength="794.90" waitingTime="11.00" waitingCount="1" stopTime="0.00" timeLoss="25.23" rerouteNo="0" devices="tripinfo_665" vType="DEFAULT_VEHTYPE" speedFactor="0.99" vaporized=""/>
    <tripinfo id="339" depart="36.00" departLane="top1B2_1" departPos="5.10" departSpeed="0.00" departDelay="0.69" arrival="155.00" arrivalLane="B0bottom1_0" arrivalPos="186.40" arrivalSpeed="14.67" duration="119.00" routeLength="794.90" waitingTime="47.00" waitingCount="2" stopTime="0.00" timeLoss="66.37" rerouteNo="0" devices="tripinfo_339" vType="DEFAULT_VEHTYPE" speedFactor="1.10" vaporized=""/>
    <tripinfo id="398" depart="42.00" departLane="left0A0_0" departPos="5.10" departSpeed="0.00" departDelay="0.54" arrival="155.00" arrivalLane="C0right0_0" arrivalPos="186.40" arrivalSpeed="13.31" duration="113.00" routeLength="794.90" waitingTime="38.00" waitingCount="2" stopTime="0.00" timeLoss="55.59" rerouteNo="0" devices="tripinfo_398" vType="DEFAULT_VEHTYPE" speedFactor="1.00" vaporized=""/>
    <tripinfo id="342" depart="36.00" departLane="top1B2_0" departPos="5.10" departSpeed="0.00" departDelay="0.37" arrival="156.00" arrivalLane="B0bottom1_1" arrivalPos="186.40" arrivalSpeed="13.81" duration="120.00" routeLength="794.90" waitingTime="45.00" waitingCount="2" stopTime="0.00" timeLoss="64.14" rerouteNo="0" devices="tripinfo_342" vType="DEFAULT_VEHTYPE" speedFactor="1.03" vaporized=""/>
    <tripinfo id="553" depart="58.00" departLane="left0A0_1" departPos="5.10" departSpeed="0.00" departDelay="0.40" arrival="156.00" arrivalLane="C0right0_2" arrivalPos="186.40" arrivalSpeed="11.86" duration="98.00" routeLength="794.90" waitingTime="15.00" waitingCount="2" stopTime="0.00" timeLoss="30.20" rerouteNo="0" devices="tripinfo_553" vType="DEFAULT_VEHTYPE" speedFactor="0.85" vaporized=""/>
    <tripinfo id="234" depart="28.00" departLane="left2A2_0" departPos="5.10" departSpeed="0.00" departDelay="3.62" arrival="157.00" arrivalLane="C2right2_0" arrivalPos="186.40" arrivalSpeed="10.24" duration="129.00" routeLength="794.90" waitingTime="43.00" waitingCount="1" stopTime="0.00" timeLoss="59.11" rerouteNo="0" devices="tripinfo_234" vType="DEFAULT_VEHTYPE" speedFactor="0.83" vaporized=""/>
    <tripinfo id="681" depart="71.00" departLane="left0A0_0" departPos="5.10" departSpeed="0.00" departDelay="0.06" arrival="157.00" arrivalLane="C0right0_1" arrivalPos="186.40" arrivalSpeed="12.72" duration="86.00" routeLength="794.90" waitingTime="5.00" waitingCount="1" stopTime="0.00" timeLoss="24.29" rerouteNo="0" devices="tripinfo_681" vType="DEFAULT_VEHTYPE" speedFactor="0.94" vaporized=""/>
    <tripinfo id="622" depart="65.00" departLane="top1B2_0" departPos="5.10" departSpeed="0.00" departDelay="0.21" arrival="158.00" arrivalLane="B0bottom1_0" arrivalPos="186.40" arrivalSpeed="12.99" duration="93.00" routeLength="794.90" waitingTime="16.00" waitingCount="2" stopTime="0.00" timeLoss="33.23" rerouteNo="0" devices="tripinfo_622" vType="DEFAULT_VEHTYPE" speedFactor="0.97" vaporized=""/>
    <tripinfo id="786" depart="82.00" departLane="left0A0_2" departPos="5.10" departSpeed="0.00" departDelay="0.12" arrival="158.00" arrivalLane="C0right0_0" arrivalPos="186.40" arrivalSpeed="12.54" duration="76.00" routeLength="794.90" waitingTime="6.00" waitingCount="1" stopTime="0.00" timeLoss="17.17" rerouteNo="0" devices="tripinfo_786" vType="DEFAULT_VEHTYPE" speedFactor="0.98" vaporized=""/>
    <tripinfo id="832" depart="87.00" departLane="left0A0_1" departPos="5.10" departSpeed="0.00" departDelay="0.33" arrival="158.00" arrivalLane="C0right0_1" arrivalPos="186.40" arrivalSpeed="13.90" duration="71.00" routeLength="794.90" waitingTime="1.00" waitingCount="1" stopTime="0.00" timeLoss="14.66" rerouteNo="0" devices="tripinfo_832" vType="DEFAULT_VEHTYPE" speedFactor="1.02" vaporized=""/>
    <tripinfo id="836" depart="88.00" departLane="top1B2_1" departPos="5.10" departSpeed="0.00" departDelay="0.92" arrival="158.00" arrivalLane="B0bottom1_1" arrivalPos="186.40" arrivalSpeed="14.70" duration="70.00" routeLength="794.90" waitingTime="4.00" waitingCount="1" stopTime="0.00" timeLoss="19.45" rerouteNo="0" devices="tripinfo_836" vType="DEFAULT_VEHTYPE" speedFactor="1.15" vaporized=""/>
    <tripinfo id="327" depart="35.00" departLane="left2A2_0" departPos="5.10" departSpeed="0.00" departDelay="0.94" arrival="159.00" arrivalLane="C2right2_0" arrivalPos="186.40" arrivalSpeed="12.35" duration="124.00" routeLength="794.90" waitingTime="41.00" waitingCount="1" stopTime="0.00" timeLoss="64.34" rerouteNo="0" devices="tripinfo_327" vType="DEFAULT_VEHTYPE" speedFactor="0.97" vaporized=""/>
    <tripinfo id="633" depart="66.00" departLane="left2A2_0" departPos="5.10" departSpeed="0.00" departDelay="0.06" arrival="165.00" arrivalLane="C2right2_0" arrivalPos="186.40" arrivalSpeed="14.88" duration="99.00" routeLength="794.90" waitingTime="36.00" waitingCount="1" stopTime="0.00" timeLoss="47.61" rerouteNo="0" devices="tripinfo_633" vType="DEFAULT_VEHTYPE" speedFactor="1.12" vaporized=""/>
    <tripinfo id="385" depart="41.00" departLane="left1A1_1" departPos="5.10" departSpeed="0.00" departDelay="0.90" arrival="167.00" arrivalLane="C1right1_0" arrivalPos="186.40" arrivalSpeed="13.78" duration="126.00" routeLength="794.90" waitingTime="54.00" waitingCount="2" stopTime="0.00" timeLoss="70.62" rerouteNo="0" devices="tripinfo_385" vType="DEFAULT_VEHTYPE" speedFactor="1.04" vaporized=""/>
    <tripinfo id="286" depart="30.00" departLane="left1A1_0" departPos="5.10" departSpeed="0.00" departDelay="0.21" arrival="169.00" arrivalLane="C1right1_0" arrivalPos="186.40" arrivalSpeed="12.87" duration="139.00" routeLength="794.90" waitingTime="64.00" waitingCount="2" stopTime="0.00" timeLoss="81.29" rerouteNo="0" devices="tripinfo_286" vType="DEFAULT_VEHTYPE" speedFactor="1.01" vaporized=""/>
    <tripinfo id="626" depart="66.00" departLane="left1A1_0" departPos="5.10" departSpeed="0.00" departDelay="0.79" arrival="170.00" arrivalLane="C1right1_0" arrivalPos="186.40" arrivalSpeed="14.91" duration="104.00" routeLength="794.90" waitingTime="31.00" waitingCount="2" stopTime="0.00" timeLoss="50.95" rerouteNo="0" devices="tripinfo_626" vType="DEFAULT_VEHTYPE" speedFactor="1.08" vaporized=""/>
    <tripinfo id="750" depart="79.00" departLane="left1A1_1" departPos="5.10" departSpeed="0.00" departDelay="0.87" arrival="171.00" arrivalLane="C1right1_1" arrivalPos="186.40" arrivalSpeed="13.30" duration="92.00" routeLength="794.90" waitingTime="23.00" waitingCount="1" stopTime="0.00" timeLoss="32.47" rerouteNo="0" devices="tripinfo_750" vType="DEFAULT_VEHTYPE" speedFactor="0.97" vaporized=""/>
    <tripinfo id="232" depart="25.00" departLane="top0A2_0" departPos="5.10" departSpeed="0.00" departDelay="0.83" arrival="172.00" arrivalLane="A0bottom0_0" arrivalPos="186.40" arrivalSpeed="12.01" duration="147.00" routeLength="794.90" waitingTime="66.00" waitingCount="2" stopTime="0.00" timeLoss="82.15" rerouteNo="0" devices="tripinfo_232" vType="DEFAULT_VEHTYPE" speedFactor="0.89" vaporized=""/>
    <tripinfo id="508" depart="53.00" departLane="right2C2_0" departPos="5.10" departSpeed="0.00" departDelay="0.08" arrival="172.00" arrivalLane="A2left2_0" arrivalPos="192.80" arrivalSpeed="11.94" duration="119.00" routeLength="794.90" waitingTime="45.00" waitingCount="1" stopTime="0.00" timeLoss="54.67" rerouteNo="0" devices="tripinfo_508" vType="DEFAULT_VEHTYPE" speedFactor="0.90" vaporized=""/>
    <tripinfo id="778" depart="82.00" departLane="left1A1_0" departPos="5.10" departSpeed="0.00" departDelay="0.96" arrival="172.00" arrivalLane="C1right1_0" arrivalPos="186.40" arrivalSpeed="13.57" duration="90.00" routeLength="794.90" waitingTime="21.00" waitingCount="1" stopTime="0.00" timeLoss="34.32" rerouteNo="0" devices="tripinfo_778" vType="DEFAULT_VEHTYPE" speedFactor="1.03" vaporized=""/>
    <tripinfo id="814" depart="85.00" departLane="left1A1_1" departPos="5.10" departSpeed="0.00" departDelay="0.21" arrival="172.00" arrivalLane="C1right1_1" arrivalPos="186.40" arrivalSpeed="14.28" duration="87.00" routeLength="794.90" waitingTime="17.00" waitingCount="1" stopTime="0.00" timeLoss="31.68" rerouteNo="0" devices="tripinfo_814" vType="DEFAULT_VEHTYPE" speedFactor="1.03" vaporized=""/>
    <tripinfo id="760" depart="80.00" departLane="right2C2_0" departPos="5.10" departSpeed="0.00" departDelay="0.83" arrival="173.00" arrivalLane="B2A2_0" arrivalPos="182.40" arrivalSpeed="12.98" duration="93.00" routeLength="587.70" waitingTime="37.00" waitingCount="1" stopTime="0.00" timeLoss="47.93" rerouteNo="0" devices="tripinfo_760" vType="DEFAULT_VEHTYPE" speedFactor="0.94" vaporized=""/>
    <tripinfo id="252" depart="28.00" departLane="top0A2_0" departPos="5.10" departSpeed="0.00" departDelay="1.75" arrival="174.00" arrivalLane="A0bottom0_0" arrivalPos="186.40" arrivalSpeed="14.85" duration="146.00" routeLength="794.90" waitingTime="64.00" waitingCount="2" stopTime="0.00" timeLoss="94.54" rerouteNo="0" devices="tripinfo_252" vType="DEFAULT_VEHTYPE" speedFactor="1.13" vaporized=""/>
    <tripinfo id="879" depart="92.00" departLane="left1A1_0" departPos="5.10" departSpeed="0.00" departDelay="0.44" arrival="174.00" arrivalLane="C1right1_0" arrivalPos="186.40" arrivalSpeed="13.48" duration="82.00" routeLength="794.90" waitingTime="11.00" waitingCount="1" stopTime="0.00" timeLoss="24.75" rerouteNo="0" devices="tripinfo_879" vType="DEFAULT_VEHTYPE" speedFactor="1.01" vaporized=""/>
    <tripinfo id="386" depart="41.00" departLane="top0A2_0" departPos="5.10" departSpeed="0.00" departDelay="0.79" arrival="175.00" arrivalLane="A0bottom0_0" arrivalPos="186.40" arrivalSpeed="14.08" duration="134.00" routeLength="794.90" waitingTime="52.00" waitingCount="2" stopTime="0.00" timeLoss="81.15" rerouteNo="0" devices="tripinfo_386" vType="DEFAULT_VEHTYPE" speedFactor="1.09" vaporized=""/>
    <tripinfo id="543" depart="57.00" departLane="right2C2_0" departPos="5.10" departSpeed="0.00" departDelay="0.44" arrival="175.00" arrivalLane="A2left2_0" arrivalPos="192.80" arrivalSpeed="10.94" duration="118.00" routeLength="794.90" waitingTime="40.00" waitingCount="1" stopTime="0.00" timeLoss="52.01" rerouteNo="0" devices="tripinfo_543" vType="DEFAULT_VEHTYPE" speedFactor="0.88" vaporized=""/>
    <tripinfo id="558" depart="59.00" departLane="top0A2_0" departPos="5.10" departSpeed="0.00" departDelay="0.88" arrival="177.00" arrivalLane="A0bottom0_0" arrivalPos="186.40" arrivalSpeed="15.77" duration="118.00" routeLength="794.90" waitingTime="37.00" waitingCount="2" stopTime="0.00" timeLoss="68.30" rerouteNo="0" devices="tripinfo_558" vType="DEFAULT_VEHTYPE" speedFactor="1.17" vaporized=""/>
    <tripinfo id="559" depart="62.00" departLane="top0A2_0" departPos="5.10" departSpeed="0.00" departDelay="3.77" arrival="179.00" arrivalLane="A0bottom0_0" arrivalPos="186.40" arrivalSpeed="13.11" duration="117.00" routeLength="794.90" waitingTime="35.00" waitingCount="2" stopTime="0.00" timeLoss="60.08" rerouteNo="0" devices="tripinfo_559" vType="DEFAULT_VEHTYPE" speedFactor="1.02" vaporized=""/>
    <tripinfo id="572" depart="65.00" departLane="top0A2_0" departPos="5.10" departSpeed="0.00" departDelay="5.42" arrival="180.00" arrivalLane="A0bottom0_0" arrivalPos="186.40" arrivalSpeed="14.41" duration="115.00" routeLength="794.90" waitingTime="32.00" waitingCount="2" stopTime="0.00" timeLoss="62.70" rerouteNo="0" devices="tripinfo_572" vType="DEFAULT_VEHTYPE" speedFactor="1.10" vaporized=""/>