<?xml version="1.0" encoding="UTF-8"?>

<!-- generated on 03/03/22 19:50:27 by Eclipse SUMO sumo Version 1.8.0
<configuration xmlns:xsi="http://www.w3.org/2001/XMLSchema-instance" xsi:noNamespaceSchemaLocation="http://sumo.dlr.de/xsd/sumoConfiguration.xsd">

    <input>
        <net-file value="configs\SMARTCOMP\grid-5x5.net.xml"/>
        <route-files value="configs\SMARTCOMP\traffic.rou.xml"/>
    </input>

    <output>
        <tripinfo-output value=".tmp-tripinfo.xml"/>
    </output>

    <routing>
        <device.rerouting.period value="60"/>
    </routing>

    <report>
        <no-warnings value="true"/>
        <no-step-log value="true"/>
    </report>

</configuration>
-->

<tripinfos xmlns:xsi="http://www.w3.org/2001/XMLSchema-instance" xsi:noNamespaceSchemaLocation="http://sumo.dlr.de/xsd/tripinfo_file.xsd">
