<?xml version="1.0" encoding="UTF-8"?>

<!-- generated on 03/09/22 19:36:46 by Eclipse SUMO sumo Version 1.8.0
<configuration xmlns:xsi="http://www.w3.org/2001/XMLSchema-instance" xsi:noNamespaceSchemaLocation="http://sumo.dlr.de/xsd/sumoConfiguration.xsd">

    <input>
        <net-file value="configs\SMARTCOMP\grid-7x7.net.xml"/>
        <route-files value="configs\SMARTCOMP\traffic.rou.xml"/>
    </input>

    <output>
        <tripinfo-output value=".tmp-tripinfo.xml"/>
    </output>

    <routing>
        <device.rerouting.period value="60"/>
    </routing>

    <report>
        <no-warnings value="true"/>
        <no-step-log value="true"/>
    </report>

</configuration>
-->

<tripinfos xmlns:xsi="http://www.w3.org/2001/XMLSchema-instance" xsi:noNamespaceSchemaLocation="http://sumo.dlr.de/xsd/tripinfo_file.xsd">
    <tripinfo id="95" depart="2.00" departLane="left2A2_0" departPos="5.10" departSpeed="0.00" departDelay="0.14" arrival="30.00" arrivalLane="B2C2_0" arrivalPos="76.00" arrivalSpeed="11.50" duration="28.00" routeLength="281.30" waitingTime="0.00" waitingCount="0" stopTime="0.00" timeLoss="3.57" rerouteNo="0" devices="tripinfo_95" vType="DEFAULT_VEHTYPE" speedFactor="0.83" vaporized=""/>
    <tripinfo id="1451" depart="29.00" departLane="B2A2_0" departPos="5.10" departSpeed="0.00" departDelay="0.66" arrival="46.00" arrivalLane="A2left2_0" arrivalPos="92.80" arrivalSpeed="14.09" duration="17.00" routeLength="184.50" waitingTime="0.00" waitingCount="0" stopTime="0.00" timeLoss="3.42" rerouteNo="0" devices="tripinfo_1451" vType="DEFAULT_VEHTYPE" speedFactor="1.02" vaporized=""/>
    <tripinfo id="547" depart="11.00" departLane="right0G0_0" departPos="5.10" departSpeed="0.00" departDelay="0.32" arrival="95.00" arrivalLane="A0left0_0" arrivalPos="92.80" arrivalSpeed="15.29" duration="84.00" routeLength="794.90" waitingTime="21.00" waitingCount="1" stopTime="0.00" timeLoss="33.65" rerouteNo="0" devices="tripinfo_547" vType="DEFAULT_VEHTYPE" speedFactor="1.16" vaporized=""/>
    <tripinfo id="396" depart="8.00" departLane="left5A5_0" departPos="5.10" departSpeed="0.00" departDelay="0.27" arrival="99.00" arrivalLane="G5right5_1" arrivalPos="92.80" arrivalSpeed="12.72" duration="91.00" routeLength="794.90" waitingTime="15.00" waitingCount="1" stopTime="0.00" timeLoss="28.68" rerouteNo="0" devices="tripinfo_396" vType="DEFAULT_VEHTYPE" speedFactor="0.93" vaporized=""/>
    <tripinfo id="1736" depart="34.00" departLane="bottom3D0_1" departPos="5.10" departSpeed="0.00" departDelay="0.09" arrival="99.00" arrivalLane="D0D1_0" arrivalPos="82.40" arrivalSpeed="13.47" duration="65.00" routeLength="184.50" waitingTime="42.00" waitingCount="1" stopTime="0.00" timeLoss="51.54" rerouteNo="0" devices="tripinfo_1736" vType="DEFAULT_VEHTYPE" speedFactor="0.99" vaporized=""/>
    <tripinfo id="381" depart="8.00" departLane="top6G6_0" departPos="5.10" departSpeed="0.00" departDelay="0.56" arrival="100.00" arrivalLane="G0bottom6_0" arrivalPos="92.80" arrivalSpeed="15.17" duration="92.00" routeLength="794.90" waitingTime="25.00" waitingCount="2" stopTime="0.00" timeLoss="40.66" rerouteNo="0" devices="tripinfo_381" vType="DEFAULT_VEHTYPE" speedFactor="1.12" vaporized=""/>
    <tripinfo id="766" depart="15.00" departLane="right5G5_0" departPos="5.10" departSpeed="0.00" departDelay="0.04" arrival="100.00" arrivalLane="A5left5_0" arrivalPos="92.80" arrivalSpeed="15.17" duration="85.00" routeLength="794.90" waitingTime="17.00" waitingCount="2" stopTime="0.00" timeLoss="36.21" rerouteNo="0" devices="tripinfo_766" vType="DEFAULT_VEHTYPE" speedFactor="1.18" vaporized=""/>
    <tripinfo id="1069" depart="21.00" departLane="left5A5_0" departPos="5.10" departSpeed="0.00" departDelay="0.12" arrival="100.00" arrivalLane="G5right5_0" arrivalPos="92.80" arrivalSpeed="13.32" duration="79.00" routeLength="794.90" waitingTime="6.00" waitingCount="2" stopTime="0.00" timeLoss="23.42" rerouteNo="0" devices="tripinfo_1069" vType="DEFAULT_VEHTYPE" speedFactor="1.04" vaporized=""/>
    <tripinfo id="2143" depart="42.00" departLane="right2G2_0" departPos="5.10" departSpeed="0.00" departDelay="0.14" arrival="100.00" arrivalLane="G2F2_0" arrivalPos="82.40" arrivalSpeed="15.42" duration="58.00" routeLength="184.50" waitingTime="34.00" waitingCount="1" stopTime="0.00" timeLoss="45.77" rerouteNo="0" devices="tripinfo_2143" vType="DEFAULT_VEHTYPE" speedFactor="1.15" vaporized=""/>
    <tripinfo id="84" depart="2.00" departLane="bottom0A0_0" departPos="5.10" departSpeed="0.00" departDelay="0.36" arrival="101.00" arrivalLane="A6top0_0" arrivalPos="92.80" arrivalSpeed="13.01" duration="99.00" routeLength="794.90" waitingTime="24.00" waitingCount="2" stopTime="0.00" timeLoss="42.62" rerouteNo="0" devices="tripinfo_84" vType="DEFAULT_VEHTYPE" speedFactor="1.03" vaporized=""/>
    <tripinfo id="802" depart="16.00" departLane="left1A1_0" departPos="5.10" departSpeed="0.00" departDelay="0.34" arrival="101.00" arrivalLane="G1right1_0" arrivalPos="92.80" arrivalSpeed="15.42" duration="85.00" routeLength="794.90" waitingTime="18.00" waitingCount="2" stopTime="0.00" timeLoss="34.54" rerouteNo="0" devices="tripinfo_802" vType="DEFAULT_VEHTYPE" speedFactor="1.15" vaporized=""/>
    <tripinfo id="1382" depart="27.00" departLane="left4A4_0" departPos="5.10" departSpeed="0.00" departDelay="0.01" arrival="101.00" arrivalLane="B4C4_0" arrivalPos="76.00" arrivalSpeed="11.62" duration="74.00" routeLength="281.30" waitingTime="42.00" waitingCount="1" stopTime="0.00" timeLoss="49.62" rerouteNo="0" devices="tripinfo_1382" vType="DEFAULT_VEHTYPE" speedFactor="0.85" vaporized=""/>
    <tripinfo id="3037" depart="60.00" departLane="G5G6_0" departPos="5.10" departSpeed="0.00" departDelay="0.68" arrival="101.00" arrivalLane="G6top6_0" arrivalPos="92.80" arrivalSpeed="11.60" duration="41.00" routeLength="184.50" waitingTime="18.00" waitingCount="1" stopTime="0.00" timeLoss="26.24" rerouteNo="0" devices="tripinfo_3037" vType="DEFAULT_VEHTYPE" speedFactor="0.93" vaporized=""/>
    <tripinfo id="2422" depart="48.00" departLane="A2A1_0" departPos="5.10" departSpeed="0.00" departDelay="0.70" arrival="102.00" arrivalLane="A0bottom0_0" arrivalPos="92.80" arrivalSpeed="10.88" duration="54.00" routeLength="281.30" waitingTime="21.00" waitingCount="1" stopTime="0.00" timeLoss="29.19" rerouteNo="0" devices="tripinfo_2422" vType="DEFAULT_VEHTYPE" speedFactor="0.83" vaporized=""/>
    <tripinfo id="151" depart="5.00" departLane="bottom0A0_0" departPos="5.10" departSpeed="0.00" departDelay="2.05" arrival="103.00" arrivalLane="A6top0_0" arrivalPos="92.80" arrivalSpeed="14.00" duration="98.00" routeLength="794.90" waitingTime="23.00" waitingCount="2" stopTime="0.00" timeLoss="42.39" rerouteNo="0" devices="tripinfo_151" vType="DEFAULT_VEHTYPE" speedFactor="1.05" vaporized=""/>
    <tripinfo id="465" depart="11.00" departLane="top6G6_0" departPos="5.10" departSpeed="0.00" departDelay="1.92" arrival="103.00" arrivalLane="G0bottom6_0" arrivalPos="92.80" arrivalSpeed="11.98" duration="92.00" routeLength="794.90" waitingTime="14.00" waitingCount="1" stopTime="0.00" timeLoss="30.17" rerouteNo="0" devices="tripinfo_465" vType="DEFAULT_VEHTYPE" speedFactor="0.94" vaporized=""/>
    <tripinfo id="580" depart="12.00" departLane="bottom6G0_0" departPos="5.10" departSpeed="0.00" departDelay="0.67" arrival="103.00" arrivalLane="G6top6_0" arrivalPos="92.80" arrivalSpeed="13.33" duration="91.00" routeLength="794.90" waitingTime="17.00" waitingCount="2" stopTime="0.00" timeLoss="34.02" rerouteNo="0" devices="tripinfo_580" vType="DEFAULT_VEHTYPE" speedFactor="1.01" vaporized=""/>
    <tripinfo id="639" depart="14.00" departLane="top6G6_0" departPos="5.10" departSpeed="0.00" departDelay="1.52" arrival="105.00" arrivalLane="G0bottom6_0" arrivalPos="92.80" arrivalSpeed="11.91" duration="91.00" routeLength="794.90" waitingTime="13.00" waitingCount="1" stopTime="0.00" timeLoss="25.96" rerouteNo="0" devices="tripinfo_639" vType="DEFAULT_VEHTYPE" speedFactor="0.89" vaporized=""/>
    <tripinfo id="741" depart="15.00" departLane="bottom6G0_0" departPos="5.10" departSpeed="0.00" departDelay="0.53" arrival="105.00" arrivalLane="G6top6_0" arrivalPos="92.80" arrivalSpeed="14.73" duration="90.00" routeLength="794.90" waitingTime="14.00" waitingCount="2" stopTime="0.00" timeLoss="38.71" rerouteNo="0" devices="tripinfo_741" vType="DEFAULT_VEHTYPE" speedFactor="1.13" vaporized=""/>
    <tripinfo id="1936" depart="38.00" departLane="A0A1_0" departPos="5.10" departSpeed="0.00" departDelay="0.19" arrival="105.00" arrivalLane="A6top0_0" arrivalPos="92.80" arrivalSpeed="12.08" duration="67.00" routeLength="687.70" waitingTime="0.00" waitingCount="0" stopTime="0.00" timeLoss="14.65" rerouteNo="0" devices="tripinfo_1936" vType="DEFAULT_VEHTYPE" speedFactor="0.96" vaporized=""/>
    <tripinfo id="66" depart="2.00" departLane="bottom3D0_0" departPos="5.10" departSpeed="0.00" departDelay="0.71" arrival="107.00" arrivalLane="D6top3_0" arrivalPos="92.80" arrivalSpeed="13.98" duration="105.00" routeLength="794.90" waitingTime="41.00" waitingCount="1" stopTime="0.00" timeLoss="51.74" rerouteNo="0" devices="tripinfo_66" vType="DEFAULT_VEHTYPE" speedFactor="1.08" vaporized=""/>
    <tripinfo id="917" depart="18.00" departLane="left4A4_1" departPos="5.10" departSpeed="0.00" departDelay="0.09" arrival="107.00" arrivalLane="G4right4_0" arrivalPos="92.80" arrivalSpeed="14.90" duration="89.00" routeLength="794.90" waitingTime="18.00" waitingCount="1" stopTime="0.00" timeLoss="36.49" rerouteNo="0" devices="tripinfo_917" vType="DEFAULT_VEHTYPE" speedFactor="1.10" vaporized=""/>
    <tripinfo id="1045" depart="21.00" departLane="right4G4_0" departPos="5.10" departSpeed="0.00" departDelay="0.59" arrival="107.00" arrivalLane="A4left4_0" arrivalPos="92.80" arrivalSpeed="14.35" duration="86.00" routeLength="794.90" waitingTime="20.00" waitingCount="1" stopTime="0.00" timeLoss="33.43" rerouteNo="0" devices="tripinfo_1045" vType="DEFAULT_VEHTYPE" speedFactor="1.09" vaporized=""/>
    <tripinfo id="1112" depart="22.00" departLane="top5F6_1" departPos="5.10" departSpeed="0.00" departDelay="0.28" arrival="107.00" arrivalLane="F0bottom5_1" arrivalPos="92.80" arrivalSpeed="14.98" duration="85.00" routeLength="794.90" waitingTime="12.00" waitingCount="1" stopTime="0.00" timeLoss="31.93" rerouteNo="0" devices="tripinfo_1112" vType="DEFAULT_VEHTYPE" speedFactor="1.09" vaporized=""/>
    <tripinfo id="1128" depart="23.00" departLane="bottom6G0_0" departPos="5.10" departSpeed="0.00" departDelay="0.97" arrival="107.00" arrivalLane="G6top6_0" arrivalPos="92.80" arrivalSpeed="13.51" duration="84.00" routeLength="794.90" waitingTime="7.00" waitingCount="2" stopTime="0.00" timeLoss="25.94" rerouteNo="0" devices="tripinfo_1128" vType="DEFAULT_VEHTYPE" speedFactor="1.00" vaporized=""/>
    <tripinfo id="877" depart="18.00" departLane="right2G2_0" departPos="5.10" departSpeed="0.00" departDelay="0.87" arrival="108.00" arrivalLane="A2left2_0" arrivalPos="92.80" arrivalSpeed="13.51" duration="90.00" routeLength="794.90" waitingTime="18.00" waitingCount="1" stopTime="0.00" timeLoss="32.89" rerouteNo="0" devices="tripinfo_877" vType="DEFAULT_VEHTYPE" speedFactor="1.01" vaporized=""/>
    <tripinfo id="888" depart="18.00" departLane="right2G2_1" departPos="5.10" departSpeed="0.00" departDelay="0.66" arrival="108.00" arrivalLane="A2left2_1" arrivalPos="92.80" arrivalSpeed="13.24" duration="90.00" routeLength="794.90" waitingTime="16.00" waitingCount="1" stopTime="0.00" timeLoss="32.44" rerouteNo="0" devices="tripinfo_888" vType="DEFAULT_VEHTYPE" speedFactor="0.99" vaporized=""/>
    <tripinfo id="178" depart="4.00" departLane="right4G4_0" departPos="5.10" departSpeed="0.00" departDelay="0.52" arrival="109.00" arrivalLane="A4left4_1" arrivalPos="92.80" arrivalSpeed="12.56" duration="105.00" routeLength="794.90" waitingTime="28.00" waitingCount="2" stopTime="0.00" timeLoss="43.97" rerouteNo="0" devices="tripinfo_178" vType="DEFAULT_VEHTYPE" speedFactor="0.94" vaporized=""/>
    <tripinfo id="553" depart="11.00" departLane="bottom1B0_0" departPos="5.10" departSpeed="0.00" departDelay="0.20" arrival="109.00" arrivalLane="B6top1_0" arrivalPos="92.80" arrivalSpeed="13.72" duration="98.00" routeLength="794.90" waitingTime="23.00" waitingCount="2" stopTime="0.00" timeLoss="41.09" rerouteNo="0" devices="tripinfo_553" vType="DEFAULT_VEHTYPE" speedFactor="1.02" vaporized=""/>
    <tripinfo id="1017" depart="20.00" departLane="left4A4_2" departPos="5.10" departSpeed="0.00" departDelay="0.14" arrival="109.00" arrivalLane="G4right4_0" arrivalPos="92.80" arrivalSpeed="13.08" duration="89.00" routeLength="794.90" waitingTime="17.00" waitingCount="1" stopTime="0.00" timeLoss="28.37" rerouteNo="0" devices="tripinfo_1017" vType="DEFAULT_VEHTYPE" speedFactor="0.96" vaporized=""/>
    <tripinfo id="170" depart="4.00" departLane="top1B6_0" departPos="5.10" departSpeed="0.00" departDelay="0.68" arrival="110.00" arrivalLane="B0bottom1_0" arrivalPos="92.80" arrivalSpeed="11.79" duration="106.00" routeLength="794.90" waitingTime="25.00" waitingCount="2" stopTime="0.00" timeLoss="40.96" rerouteNo="0" devices="tripinfo_170" vType="DEFAULT_VEHTYPE" speedFactor="0.89" vaporized=""/>
    <tripinfo id="676" depart="14.00" departLane="top5F6_1" departPos="5.10" departSpeed="0.00" departDelay="0.80" arrival="110.00" arrivalLane="F0bottom5_0" arrivalPos="92.80" arrivalSpeed="11.58" duration="96.00" routeLength="794.90" waitingTime="18.00" waitingCount="2" stopTime="0.00" timeLoss="33.02" rerouteNo="0" devices="tripinfo_676" vType="DEFAULT_VEHTYPE" speedFactor="0.92" vaporized=""/>
    <tripinfo id="4751" depart="93.00" departLane="C1C0_0" departPos="5.10" departSpeed="0.00" departDelay="0.21" arrival="110.00" arrivalLane="C0bottom2_0" arrivalPos="92.80" arrivalSpeed="13.80" duration="17.00" routeLength="184.50" waitingTime="0.00" waitingCount="0" stopTime="0.00" timeLoss="4.14" rerouteNo="0" devices="tripinfo_4751" vType="DEFAULT_VEHTYPE" speedFactor="1.05" vaporized=""/>
    <tripinfo id="238" depart="5.00" departLane="bottom5F0_0" departPos="5.10" departSpeed="0.00" departDelay="0.35" arrival="111.00" arrivalLane="F6top5_0" arrivalPos="92.80" arrivalSpeed="11.82" duration="106.00" routeLength="794.90" waitingTime="21.00" waitingCount="2" stopTime="0.00" timeLoss="38.51" rerouteNo="0" devices="tripinfo_238" vType="DEFAULT_VEHTYPE" speedFactor="0.86" vaporized=""/>
    <tripinfo id="1159" depart="23.00" departLane="right4G4_1" departPos="5.10" departSpeed="0.00" departDelay="0.36" arrival="112.00" arrivalLane="A4left4_0" arrivalPos="92.80" arrivalSpeed="11.38" duration="89.00" routeLength="794.90" waitingTime="13.00" waitingCount="1" stopTime="0.00" timeLoss="23.38" rerouteNo="0" devices="tripinfo_1159" vType="DEFAULT_VEHTYPE" speedFactor="0.88" vaporized=""/>
    <tripinfo id="404" depart="8.00" departLane="top5F6_0" departPos="5.10" departSpeed="0.00" departDelay="0.11" arrival="113.00" arrivalLane="F0bottom5_0" arrivalPos="92.80" arrivalSpeed="12.17" duration="105.00" routeLength="794.90" waitingTime="21.00" waitingCount="2" stopTime="0.00" timeLoss="38.88" rerouteNo="0" devices="tripinfo_404" vType="DEFAULT_VEHTYPE" speedFactor="0.88" vaporized=""/>
    <tripinfo id="655" depart="13.00" departLane="left4A4_0" departPos="5.10" departSpeed="0.00" departDelay="0.21" arrival="113.00" arrivalLane="G4right4_0" arrivalPos="92.80" arrivalSpeed="10.76" duration="100.00" routeLength="794.90" waitingTime="16.00" waitingCount="2" stopTime="0.00" timeLoss="30.44" rerouteNo="0" devices="tripinfo_655" vType="DEFAULT_VEHTYPE" speedFactor="0.83" vaporized=""/>
    <tripinfo id="887" depart="18.00" departLane="bottom2C0_0" departPos="5.10" departSpeed="0.00" departDelay="0.68" arrival="113.00" arrivalLane="C6top2_0" arrivalPos="92.80" arrivalSpeed="15.06" duration="95.00" routeLength="794.90" waitingTime="35.00" waitingCount="1" stopTime="0.00" timeLoss="45.54" rerouteNo="0" devices="tripinfo_887" vType="DEFAULT_VEHTYPE" speedFactor="1.17" vaporized=""/>
    <tripinfo id="916" depart="18.00" departLane="top4E6_1" departPos="5.10" departSpeed="0.00" departDelay="0.11" arrival="113.00" arrivalLane="E0bottom4_0" arrivalPos="92.80" arrivalSpeed="16.37" duration="95.00" routeLength="794.90" waitingTime="34.00" waitingCount="1" stopTime="0.00" timeLoss="45.98" rerouteNo="0" devices="tripinfo_916" vType="DEFAULT_VEHTYPE" speedFactor="1.18" vaporized=""/>
    <tripinfo id="261" depart="6.00" departLane="top2C6_0" departPos="5.10" departSpeed="0.00" departDelay="0.90" arrival="114.00" arrivalLane="C0bottom2_0" arrivalPos="92.80" arrivalSpeed="14.62" duration="108.00" routeLength="794.90" waitingTime="37.00" waitingCount="2" stopTime="0.00" timeLoss="55.37" rerouteNo="0" devices="tripinfo_261" vType="DEFAULT_VEHTYPE" speedFactor="1.09" vaporized=""/>
    <tripinfo id="267" depart="6.00" departLane="left3A3_0" departPos="5.10" departSpeed="0.00" departDelay="0.79" arrival="115.00" arrivalLane="G3right3_0" arrivalPos="92.80" arrivalSpeed="13.78" duration="109.00" routeLength="794.90" waitingTime="37.00" waitingCount="2" stopTime="0.00" timeLoss="52.95" rerouteNo="0" devices="tripinfo_267" vType="DEFAULT_VEHTYPE" speedFactor="1.03" vaporized=""/>
    <tripinfo id="3490" depart="69.00" departLane="C3D3_0" departPos="5.10" departSpeed="0.00" departDelay="0.84" arrival="116.00" arrivalLane="G3right3_1" arrivalPos="92.80" arrivalSpeed="13.44" duration="47.00" routeLength="481.30" waitingTime="2.00" waitingCount="1" stopTime="0.00" timeLoss="13.61" rerouteNo="0" devices="tripinfo_3490" vType="DEFAULT_VEHTYPE" speedFactor="1.06" vaporized=""/>
    <tripinfo id="414" depart="9.00" departLane="right3G3_0" departPos="5.10" departSpeed="0.00" departDelay="0.91" arrival="117.00" arrivalLane="D6top3_0" arrivalPos="92.80" arrivalSpeed="13.00" duration="108.00" routeLength="770.33" waitingTime="34.00" waitingCount="1" stopTime="0.00" timeLoss="48.45" rerouteNo="0" devices="tripinfo_414" vType="DEFAULT_VEHTYPE" speedFactor="0.94" vaporized=""/>
    <tripinfo id="630" depart="13.00" departLane="right3G3_0" departPos="5.10" departSpeed="0.00" departDelay="0.70" arrival="117.00" arrivalLane="D6top3_1" arrivalPos="92.80" arrivalSpeed="13.22" duration="104.00" routeLength="770.33" waitingTime="29.00" waitingCount="1" stopTime="0.00" timeLoss="45.47" rerouteNo="0" devices="tripinfo_630" vType="DEFAULT_VEHTYPE" speedFactor="0.98" vaporized=""/>
    <tripinfo id="896" depart="18.00" departLane="bottom3D0_1" departPos="5.10" departSpeed="0.00" departDelay="0.50" arrival="123.00" arrivalLane="D6top3_0" arrivalPos="92.80" arrivalSpeed="13.81" duration="105.00" routeLength="794.90" waitingTime="37.00" waitingCount="1" stopTime="0.00" timeLoss="48.86" rerouteNo="0" devices="tripinfo_896" vType="DEFAULT_VEHTYPE" speedFactor="1.02" vaporized=""/>
    <tripinfo id="702" depart="14.00" departLane="bottom3D0_0" departPos="5.10" departSpeed="0.00" departDelay="0.29" arrival="126.00" arrivalLane="D6top3_0" arrivalPos="92.80" arrivalSpeed="12.69" duration="112.00" routeLength="794.90" waitingTime="39.00" waitingCount="1" stopTime="0.00" timeLoss="50.92" rerouteNo="0" devices="tripinfo_702" vType="DEFAULT_VEHTYPE" speedFactor="0.95" vaporized=""/>
    <tripinfo id="4067" depart="80.00" departLane="top3D6_3" departPos="5.10" departSpeed="0.00" departDelay="0.57" arrival="137.00" arrivalLane="D0bottom3_2" arrivalPos="92.80" arrivalSpeed="15.53" duration="57.00" routeLength="794.90" waitingTime="0.00" waitingCount="0" stopTime="0.00" timeLoss="6.03" rerouteNo="0" devices="tripinfo_4067" vType="DEFAULT_VEHTYPE" speedFactor="1.13" vaporized=""/>
    <tripinfo id="1" depart="1.00" departLane="right6G6_0" departPos="5.10" departSpeed="0.00" departDelay="0.98" arrival="145.00" arrivalLane="A6left6_0" arrivalPos="92.80" arrivalSpeed="14.62" duration="144.00" routeLength="794.90" waitingTime="73.00" waitingCount="2" stopTime="0.00" timeLoss="89.77" rerouteNo="0" devices="tripinfo_1" vType="DEFAULT_VEHTYPE" speedFactor="1.06" vaporized=""/>
    <tripinfo id="391" depart="8.00" departLane="left0A0_0" departPos="5.10" departSpeed="0.00" departDelay="0.36" arrival="146.00" arrivalLane="G0right0_0" arrivalPos="92.80" arrivalSpeed="13.29" duration="138.00" routeLength="794.90" waitingTime="63.00" waitingCount="2" stopTime="0.00" timeLoss="79.59" rerouteNo="0" devices="tripinfo_391" vType="DEFAULT_VEHTYPE" speedFactor="0.99" vaporized=""/>
    <tripinfo id="63" depart="4.00" departLane="right6G6_0" departPos="5.10" departSpeed="0.00" departDelay="2.77" arrival="147.00" arrivalLane="A6left6_0" arrivalPos="92.80" arrivalSpeed="12.87" duration="143.00" routeLength="794.90" waitingTime="68.00" waitingCount="2" stopTime="0.00" timeLoss="85.96" rerouteNo="0" devices="tripinfo_63" vType="DEFAULT_VEHTYPE" speedFactor="1.01" vaporized=""/>
    <tripinfo id="5177" depart="102.00" departLane="left4A4_0" departPos="5.10" departSpeed="0.00" departDelay="0.89" arrival="149.00" arrivalLane="C4D4_0" arrivalPos="69.60" arrivalSpeed="14.77" duration="47.00" routeLength="378.10" waitingTime="10.00" waitingCount="1" stopTime="0.00" timeLoss="21.32" rerouteNo="0" devices="tripinfo_5177" vType="DEFAULT_VEHTYPE" speedFactor="1.09" vaporized=""/>
    <tripinfo id="7311" depart="143.00" departLane="G4G3_0" departPos="5.10" departSpeed="0.00" departDelay="0.21" arrival="151.00" arrivalLane="G4G3_0" arrivalPos="69.60" arrivalSpeed="12.59" duration="8.00" routeLength="64.50" waitingTime="0.00" waitingCount="0" stopTime="0.00" timeLoss="3.04" rerouteNo="0" devices="tripinfo_7311" vType="DEFAULT_VEHTYPE" speedFactor="0.99" vaporized=""/>
    <tripinfo id="2145" depart="42.00" departLane="left5A5_0" departPos="5.10" departSpeed="0.00" departDelay="0.11" arrival="152.00" arrivalLane="C5D5_0" arrivalPos="69.60" arrivalSpeed="13.05" duration="110.00" routeLength="378.10" waitingTime="66.00" waitingCount="2" stopTime="0.00" timeLoss="81.80" rerouteNo="0" devices="tripinfo_2145" vType="DEFAULT_VEHTYPE" speedFactor="0.98" vaporized=""/>
    <tripinfo id="1674" depart="33.00" departLane="top6G6_0" departPos="5.10" departSpeed="0.00" departDelay="0.30" arrival="153.00" arrivalLane="G4G3_0" arrivalPos="69.60" arrivalSpeed="13.11" duration="120.00" routeLength="378.10" waitingTime="76.00" waitingCount="2" stopTime="0.00" timeLoss="91.54" rerouteNo="0" devices="tripinfo_1674" vType="DEFAULT_VEHTYPE" speedFactor="0.97" vaporized=""/>
    <tripinfo id="1912" depart="38.00" departLane="left2A2_1" departPos="5.10" departSpeed="0.00" departDelay="0.66" arrival="153.00" arrivalLane="D2E2_1" arrivalPos="69.60" arrivalSpeed="12.31" duration="115.00" routeLength="481.30" waitingTime="62.00" waitingCount="2" stopTime="0.00" timeLoss="77.74" rerouteNo="0" devices="tripinfo_1912" vType="DEFAULT_VEHTYPE" speedFactor="0.94" vaporized=""/>
    <tripinfo id="42" depart="1.00" departLane="left6A6_0" departPos="5.10" departSpeed="0.00" departDelay="0.18" arrival="154.00" arrivalLane="G6right6_0" arrivalPos="92.80" arrivalSpeed="12.90" duration="153.00" routeLength="794.90" waitingTime="75.00" waitingCount="2" stopTime="0.00" timeLoss="91.46" rerouteNo="0" devices="tripinfo_42" vType="DEFAULT_VEHTYPE" speedFactor="0.94" vaporized=""/>
    <tripinfo id="756" depart="15.00" departLane="left0A0_0" departPos="5.10" departSpeed="0.00" departDelay="0.23" arrival="154.00" arrivalLane="G0right0_0" arrivalPos="92.80" arrivalSpeed="11.91" duration="139.00" routeLength="794.90" waitingTime="61.00" waitingCount="2" stopTime="0.00" timeLoss="77.41" rerouteNo="0" devices="tripinfo_756" vType="DEFAULT_VEHTYPE" speedFactor="0.93" vaporized=""/>
    <tripinfo id="3886" depart="76.00" departLane="right5G5_1" departPos="5.10" departSpeed="0.00" departDelay="0.10" arrival="154.00" arrivalLane="E5D5_1" arrivalPos="69.60" arrivalSpeed="13.90" duration="78.00" routeLength="378.10" waitingTime="36.00" waitingCount="2" stopTime="0.00" timeLoss="50.51" rerouteNo="0" devices="tripinfo_3886" vType="DEFAULT_VEHTYPE" speedFactor="1.01" vaporized=""/>
    <tripinfo id="673" depart="14.00" departLane="right6G6_0" departPos="5.10" departSpeed="0.00" departDelay="0.86" arrival="155.00" arrivalLane="A6left6_0" arrivalPos="92.80" arrivalSpeed="11.29" duration="141.00" routeLength="794.90" waitingTime="57.00" waitingCount="2" stopTime="0.00" timeLoss="74.81" rerouteNo="0" devices="tripinfo_673" vType="DEFAULT_VEHTYPE" speedFactor="0.87" vaporized=""/>
    <tripinfo id="2245" depart="44.00" departLane="left4A4_0" departPos="5.10" departSpeed="0.00" departDelay="0.15" arrival="155.00" arrivalLane="D4E4_0" arrivalPos="69.60" arrivalSpeed="12.91" duration="111.00" routeLength="481.30" waitingTime="58.00" waitingCount="2" stopTime="0.00" timeLoss="75.95" rerouteNo="0" devices="tripinfo_2245" vType="DEFAULT_VEHTYPE" speedFactor="1.01" vaporized=""/>
    <tripinfo id="285" depart="6.00" departLane="left6A6_0" departPos="5.10" departSpeed="0.00" departDelay="0.43" arrival="156.00" arrivalLane="G6right6_0" arrivalPos="92.80" arrivalSpeed="13.48" duration="150.00" routeLength="794.90" waitingTime="70.00" waitingCount="2" stopTime="0.00" timeLoss="94.54" rerouteNo="0" devices="tripinfo_285" vType="DEFAULT_VEHTYPE" speedFactor="1.05" vaporized=""/>
    <tripinfo id="935" depart="19.00" departLane="left0A0_0" departPos="5.10" departSpeed="0.00" departDelay="0.74" arrival="157.00" arrivalLane="G0right0_0" arrivalPos="92.80" arrivalSpeed="12.46" duration="138.00" routeLength="794.90" waitingTime="58.00" waitingCount="2" stopTime="0.00" timeLoss="73.54" rerouteNo="0" devices="tripinfo_935" vType="DEFAULT_VEHTYPE" speedFactor="0.90" vaporized=""/>
    <tripinfo id="1820" depart="36.00" departLane="left6A6_0" departPos="5.10" departSpeed="0.00" departDelay="0.45" arrival="159.00" arrivalLane="G6right6_0" arrivalPos="92.80" arrivalSpeed="11.30" duration="123.00" routeLength="794.90" waitingTime="42.00" waitingCount="1" stopTime="0.00" timeLoss="57.97" rerouteNo="0" devices="tripinfo_1820" vType="DEFAULT_VEHTYPE" speedFactor="0.88" vaporized=""/>
    <tripinfo id="2336" depart="46.00" departLane="left6A6_0" departPos="5.10" departSpeed="0.00" departDelay="0.38" arrival="161.00" arrivalLane="G6right6_0" arrivalPos="92.80" arrivalSpeed="13.18" duration="115.00" routeLength="794.90" waitingTime="44.00" waitingCount="1" stopTime="0.00" timeLoss="58.11" rerouteNo="0" devices="tripinfo_2336" vType="DEFAULT_VEHTYPE" speedFactor="1.02" vaporized=""/>
    <tripinfo id="4790" depart="94.00" departLane="D0C0_0" departPos="5.10" departSpeed="0.00" departDelay="0.45" arrival="162.00" arrivalLane="A0left0_0" arrivalPos="92.80" arrivalSpeed="12.78" duration="68.00" routeLength="378.10" waitingTime="31.00" waitingCount="1" stopTime="0.00" timeLoss="38.60" rerouteNo="0" devices="tripinfo_4790" vType="DEFAULT_VEHTYPE" speedFactor="0.94" vaporized=""/>
    <tripinfo id="2879" depart="57.00" departLane="right6G6_0" departPos="5.10" departSpeed="0.00" departDelay="0.77" arrival="169.00" arrivalLane="A6left6_0" arrivalPos="92.80" arrivalSpeed="13.76" duration="112.00" routeLength="794.90" waitingTime="44.00" waitingCount="1" stopTime="0.00" timeLoss="54.68" rerouteNo="0" devices="tripinfo_2879" vType="DEFAULT_VEHTYPE" speedFactor="1.01" vaporized=""/>
    <tripinfo id="1716" depart="36.00" departLane="top6G6_0" departPos="5.10" departSpeed="0.00" departDelay="2.48" arrival="175.00" arrivalLane="G1G0_0" arrivalPos="82.40" arrivalSpeed="15.25" duration="139.00" routeLength="687.70" waitingTime="73.00" waitingCount="2" stopTime="0.00" timeLoss="94.77" rerouteNo="0" devices="tripinfo_1716" vType="DEFAULT_VEHTYPE" speedFactor="1.12" vaporized=""/>
    <tripinfo id="3466" depart="68.00" departLane="right0G0_0" departPos="5.10" departSpeed="0.00" departDelay="0.30" arrival="175.00" arrivalLane="A0left0_0" arrivalPos="92.80" arrivalSpeed="13.58" duration="107.00" routeLength="794.90" waitingTime="40.00" waitingCount="1" stopTime="0.00" timeLoss="51.26" rerouteNo="0" devices="tripinfo_3466" vType="DEFAULT_VEHTYPE" speedFactor="1.03" vaporized=""/>
    <tripinfo id="3057" depart="60.00" departLane="right6G6_0" departPos="5.10" departSpeed="0.00" departDelay="0.29" arrival="182.00" arrivalLane="A6left6_0" arrivalPos="92.80" arrivalSpeed="11.81" duration="122.00" routeLength="794.90" waitingTime="45.00" waitingCount="1" stopTime="0.00" timeLoss="55.23" rerouteNo="0" devices="tripinfo_3057" vType="DEFAULT_VEHTYPE" speedFactor="0.87" vaporized=""/>
    <tripinfo id="2884" depart="57.00" departLane="right4G4_1" departPos="5.10" departSpeed="0.00" departDelay="0.67" arrival="183.00" arrivalLane="C4B4_1" arrivalPos="76.00" arrivalSpeed="5.23" duration="126.00" routeLength="584.50" waitingTime="60.00" waitingCount="3" stopTime="0.00" timeLoss="85.26" rerouteNo="0" devices="tripinfo_2884" vType="DEFAULT_VEHTYPE" speedFactor="1.03" vaporized=""/>
    <tripinfo id="3127" depart="63.00" departLane="right6G6_0" departPos="5.10" departSpeed="0.00" departDelay="1.93" arrival="183.00" arrivalLane="A6left6_0" arrivalPos="92.80" arrivalSpeed="13.34" duration="120.00" routeLength="794.90" waitingTime="42.00" waitingCount="1" stopTime="0.00" timeLoss="67.74" rerouteNo="0" devices="tripinfo_3127" vType="DEFAULT_VEHTYPE" speedFactor="1.10" vaporized=""/>
    <tripinfo id="3520" depart="69.00" departLane="right6G6_0" departPos="5.10" departSpeed="0.00" departDelay="0.25" arrival="185.00" arrivalLane="A6left6_0" arrivalPos="92.80" arrivalSpeed="15.18" duration="116.00" routeLength="794.90" waitingTime="42.00" waitingCount="1" stopTime="0.00" timeLoss="65.86" rerouteNo="0" devices="tripinfo_3520" vType="DEFAULT_VEHTYPE" speedFactor="1.15" vaporized=""/>