<?xml version="1.0" encoding="UTF-8"?>

<!-- generated on Tue Oct 20 12:43:17 2020 by Eclipse SUMO sumo Version 7090c177
<configuration xmlns:xsi="http://www.w3.org/2001/XMLSchema-instance" xsi:noNamespaceSchemaLocation="http://sumo.dlr.de/xsd/sumoConfiguration.xsd">

    <input>
        <net-file value="configs/example/traffic.net.xml"/>
        <route-files value="configs/example/traffic.rou.xml"/>
        <additional-files value="configs/example/traffic.det.xml"/>
    </input>

    <output>
        <tripinfo-output value="configs/example/tripinfo.xml"/>
    </output>

    <traci_server>
        <remote-port value="52427"/>
    </traci_server>

</configuration>
-->

<detector xmlns:xsi="http://www.w3.org/2001/XMLSchema-instance" xsi:noNamespaceSchemaLocation="http://sumo.dlr.de/xsd/det_e1_file.xsd">
    <interval begin="0.00" end="30.00" id="0" nVehContrib="4" flow="480.00" occupancy="3.75" speed="9.60" harmonicMeanSpeed="9.60" length="2.70" nVehEntered="4"/>
    <interval begin="30.00" end="60.00" id="0" nVehContrib="2" flow="240.00" occupancy="65.22" speed="5.34" harmonicMeanSpeed="4.98" length="2.70" nVehEntered="3"/>
    <interval begin="60.00" end="87.00" id="0" nVehContrib="3" flow="400.00" occupancy="23.92" speed="1.86" harmonicMeanSpeed="0.32" length="2.70" nVehEntered="2"/>
</detector>
