<?xml version="1.0" encoding="UTF-8"?>

<!-- generated on Mon Oct 19 16:30:30 2020 by Eclipse SUMO Version 1.6.0
<configuration xmlns:xsi="http://www.w3.org/2001/XMLSchema-instance" xsi:noNamespaceSchemaLocation="http://sumo.dlr.de/xsd/sumoConfiguration.xsd">

    <input>
        <net-file value="configs/example/traffic.net.xml"/>
        <route-files value="configs/example/traffic.rou.xml"/>
        <additional-files value="configs/example/traffic.det.xml"/>
    </input>

    <output>
        <tripinfo-output value="configs/example/tripinfo.xml"/>
    </output>

    <traci_server>
        <remote-port value="49644"/>
    </traci_server>

</configuration>
-->

<detector xmlns:xsi="http://www.w3.org/2001/XMLSchema-instance" xsi:noNamespaceSchemaLocation="http://sumo.dlr.de/xsd/det_e1_file.xsd">
    <interval begin="0.00" end="30.00" id="0" nVehContrib="2" flow="240.00" occupancy="1.82" speed="9.89" harmonicMeanSpeed="9.89" length="2.70" nVehEntered="2"/>
    <interval begin="30.00" end="60.00" id="0" nVehContrib="4" flow="480.00" occupancy="50.37" speed="7.56" harmonicMeanSpeed="6.63" length="2.70" nVehEntered="5"/>
    <interval begin="60.00" end="90.00" id="0" nVehContrib="6" flow="720.00" occupancy="25.17" speed="3.08" harmonicMeanSpeed="0.77" length="2.70" nVehEntered="5"/>
    <interval begin="90.00" end="120.00" id="0" nVehContrib="0" flow="0.00" occupancy="0.00" speed="-1.00" harmonicMeanSpeed="-1.00" length="-1.00" nVehEntered="0"/>
    <interval begin="120.00" end="133.00" id="0" nVehContrib="0" flow="0.00" occupancy="0.00" speed="-1.00" harmonicMeanSpeed="-1.00" length="-1.00" nVehEntered="0"/>
</detector>
