<?xml version="1.0" encoding="UTF-8"?>

<!-- generated on Tue Oct 20 12:43:17 2020 by Eclipse SUMO sumo Version 7090c177
<configuration xmlns:xsi="http://www.w3.org/2001/XMLSchema-instance" xsi:noNamespaceSchemaLocation="http://sumo.dlr.de/xsd/sumoConfiguration.xsd">

    <input>
        <net-file value="configs/example/traffic.net.xml"/>
        <route-files value="configs/example/traffic.rou.xml"/>
        <additional-files value="configs/example/traffic.det.xml"/>
    </input>

    <output>
        <tripinfo-output value="configs/example/tripinfo.xml"/>
    </output>

    <traci_server>
        <remote-port value="52427"/>
    </traci_server>

</configuration>
-->

<tripinfos xmlns:xsi="http://www.w3.org/2001/XMLSchema-instance" xsi:noNamespaceSchemaLocation="http://sumo.dlr.de/xsd/tripinfo_file.xsd">
    <tripinfo id="upleft_0" depart="0.00" departLane="54o_0" departPos="2.80" departSpeed="0.00" departDelay="0.00" arrival="27.00" arrivalLane="51i_0" arrivalPos="10.00" arrivalSpeed="15.27" duration="27.00" routeLength="206.43" waitingTime="0.00" waitingCount="0" stopTime="0.00" timeLoss="19.00" rerouteNo="0" devices="tripinfo_upleft_0" vType="typeNW" speedFactor="1.06" vaporized=""/>
    <tripinfo id="right_7" depart="14.00" departLane="51o_0" departPos="2.95" departSpeed="0.00" departDelay="0.00" arrival="40.00" arrivalLane="52i_0" arrivalPos="10.00" arrivalSpeed="15.79" duration="26.00" routeLength="211.65" waitingTime="0.00" waitingCount="0" stopTime="0.00" timeLoss="18.13" rerouteNo="0" devices="tripinfo_right_7" vType="typeWE" speedFactor="0.89" vaporized=""/>
    <tripinfo id="right_9" depart="17.00" departLane="51o_0" departPos="2.95" departSpeed="0.00" departDelay="2.00" arrival="42.00" arrivalLane="52i_0" arrivalPos="10.00" arrivalSpeed="16.33" duration="25.00" routeLength="211.65" waitingTime="0.00" waitingCount="0" stopTime="0.00" timeLoss="17.01" rerouteNo="0" devices="tripinfo_right_9" vType="typeWE" speedFactor="0.86" vaporized=""/>
    <tripinfo id="left_1" depart="2.00" departLane="52o_0" departPos="2.95" departSpeed="0.00" departDelay="0.00" arrival="47.00" arrivalLane="51i_0" arrivalPos="10.00" arrivalSpeed="11.15" duration="45.00" routeLength="211.65" waitingTime="5.00" waitingCount="1" stopTime="0.00" timeLoss="37.05" rerouteNo="0" devices="tripinfo_left_1" vType="typeWE" speedFactor="0.94" vaporized=""/>
    <tripinfo id="left_4" depart="6.00" departLane="52o_0" departPos="2.95" departSpeed="0.00" departDelay="0.00" arrival="49.00" arrivalLane="51i_0" arrivalPos="10.00" arrivalSpeed="11.94" duration="43.00" routeLength="211.65" waitingTime="5.00" waitingCount="1" stopTime="0.00" timeLoss="34.83" rerouteNo="0" devices="tripinfo_left_4" vType="typeWE" speedFactor="1.03" vaporized=""/>
    <tripinfo id="left_5" depart="9.00" departLane="52o_0" departPos="2.95" departSpeed="0.00" departDelay="0.00" arrival="50.00" arrivalLane="51i_0" arrivalPos="10.00" arrivalSpeed="12.43" duration="41.00" routeLength="211.65" waitingTime="1.00" waitingCount="1" stopTime="0.00" timeLoss="32.74" rerouteNo="0" devices="tripinfo_left_5" vType="typeWE" speedFactor="0.83" vaporized=""/>
    <tripinfo id="left_14" depart="22.00" departLane="52o_0" departPos="2.95" departSpeed="0.00" departDelay="0.00" arrival="52.00" arrivalLane="51i_0" arrivalPos="10.00" arrivalSpeed="12.59" duration="30.00" routeLength="211.65" waitingTime="0.00" waitingCount="0" stopTime="0.00" timeLoss="21.79" rerouteNo="0" devices="tripinfo_left_14" vType="typeWE" speedFactor="0.99" vaporized=""/>
    <tripinfo id="southright_13" depart="21.00" departLane="53o_0" departPos="2.80" departSpeed="0.00" departDelay="0.00" arrival="74.00" arrivalLane="52i_0" arrivalPos="10.00" arrivalSpeed="11.84" duration="53.00" routeLength="206.43" waitingTime="15.00" waitingCount="1" stopTime="0.00" timeLoss="45.28" rerouteNo="0" devices="tripinfo_southright_13" vType="typeSE" speedFactor="1.12" vaporized=""/>
    <tripinfo id="down_2" depart="4.00" departLane="54o_0" departPos="2.80" departSpeed="0.00" departDelay="2.00" arrival="75.00" arrivalLane="53i_0" arrivalPos="10.00" arrivalSpeed="12.31" duration="71.00" routeLength="211.80" waitingTime="31.00" waitingCount="1" stopTime="0.00" timeLoss="62.78" rerouteNo="0" devices="tripinfo_down_2" vType="typeNS" speedFactor="1.01" vaporized=""/>
    <tripinfo id="upleft_3" depart="8.00" departLane="54o_0" departPos="2.80" departSpeed="0.00" departDelay="4.00" arrival="76.00" arrivalLane="51i_0" arrivalPos="10.00" arrivalSpeed="11.97" duration="68.00" routeLength="206.43" waitingTime="29.00" waitingCount="1" stopTime="0.00" timeLoss="60.25" rerouteNo="0" devices="tripinfo_upleft_3" vType="typeNW" speedFactor="1.08" vaporized=""/>
    <tripinfo id="southright_16" depart="27.00" departLane="53o_0" departPos="2.80" departSpeed="0.00" departDelay="0.00" arrival="76.00" arrivalLane="52i_0" arrivalPos="10.00" arrivalSpeed="11.86" duration="49.00" routeLength="206.43" waitingTime="11.00" waitingCount="1" stopTime="0.00" timeLoss="40.77" rerouteNo="0" devices="tripinfo_southright_16" vType="typeSE" speedFactor="0.88" vaporized=""/>
    <tripinfo id="down_6" depart="12.00" departLane="54o_0" departPos="2.80" departSpeed="0.00" departDelay="3.00" arrival="78.00" arrivalLane="53i_0" arrivalPos="10.00" arrivalSpeed="12.56" duration="66.00" routeLength="211.80" waitingTime="27.00" waitingCount="1" stopTime="0.00" timeLoss="58.05" rerouteNo="0" devices="tripinfo_down_6" vType="typeNS" speedFactor="1.05" vaporized=""/>
    <tripinfo id="down_8" depart="15.00" departLane="54o_0" departPos="2.80" departSpeed="0.00" departDelay="1.00" arrival="80.00" arrivalLane="53i_0" arrivalPos="10.00" arrivalSpeed="12.40" duration="65.00" routeLength="211.80" waitingTime="23.00" waitingCount="1" stopTime="0.00" timeLoss="56.75" rerouteNo="0" devices="tripinfo_down_8" vType="typeNS" speedFactor="0.94" vaporized=""/>
    <tripinfo id="upleft_10" depart="20.00" departLane="54o_0" departPos="2.80" departSpeed="0.00" departDelay="2.00" arrival="80.00" arrivalLane="51i_0" arrivalPos="10.00" arrivalSpeed="12.01" duration="60.00" routeLength="206.43" waitingTime="22.00" waitingCount="1" stopTime="0.00" timeLoss="52.64" rerouteNo="0" devices="tripinfo_upleft_10" vType="typeNW" speedFactor="1.09" vaporized=""/>
    <tripinfo id="down_11" depart="23.00" departLane="54o_0" departPos="2.80" departSpeed="0.00" departDelay="5.00" arrival="83.00" arrivalLane="53i_0" arrivalPos="10.00" arrivalSpeed="12.46" duration="60.00" routeLength="211.80" waitingTime="19.00" waitingCount="1" stopTime="0.00" timeLoss="51.80" rerouteNo="0" devices="tripinfo_down_11" vType="typeNS" speedFactor="1.03" vaporized=""/>
    <tripinfo id="down_12" depart="27.00" departLane="54o_0" departPos="2.80" departSpeed="0.00" departDelay="8.00" arrival="84.00" arrivalLane="53i_0" arrivalPos="10.00" arrivalSpeed="12.70" duration="57.00" routeLength="211.80" waitingTime="18.00" waitingCount="1" stopTime="0.00" timeLoss="49.09" rerouteNo="0" devices="tripinfo_down_12" vType="typeNS" speedFactor="1.05" vaporized=""/>
    <tripinfo id="down_15" depart="31.00" departLane="54o_0" departPos="2.80" departSpeed="0.00" departDelay="7.00" arrival="86.00" arrivalLane="53i_0" arrivalPos="10.00" arrivalSpeed="13.26" duration="55.00" routeLength="211.80" waitingTime="17.00" waitingCount="1" stopTime="0.00" timeLoss="46.52" rerouteNo="0" devices="tripinfo_down_15" vType="typeNS" speedFactor="0.93" vaporized=""/>
</tripinfos>
