<?xml version="1.0" encoding="UTF-8"?>

<!-- generated on Fri Nov 20 14:48:30 2020 by Eclipse SUMO Version 1.6.0
<configuration xmlns:xsi="http://www.w3.org/2001/XMLSchema-instance" xsi:noNamespaceSchemaLocation="http://sumo.dlr.de/xsd/sumoConfiguration.xsd">

    <input>
        <net-file value="configs/two_inter/two_inter.net.xml"/>
        <route-files value="configs/two_inter/traffic.rou.xml"/>
    </input>

    <output>
        <tripinfo-output value="configs/two_inter/tripinfo.xml"/>
    </output>

    <report>
        <no-warnings value="true"/>
    </report>

</configuration>
-->

<tripinfos xmlns:xsi="http://www.w3.org/2001/XMLSchema-instance" xsi:noNamespaceSchemaLocation="http://sumo.dlr.de/xsd/tripinfo_file.xsd">
    <tripinfo id="5" depart="22.00" departLane="gneE7_0" departPos="5.10" departSpeed="0.00" departDelay="0.40" arrival="55.00" arrivalLane="e3_0" arrivalPos="90.00" arrivalSpeed="18.81" duration="33.00" routeLength="264.46" waitingTime="0.00" waitingCount="0" stopTime="0.00" timeLoss="14.11" rerouteNo="0" devices="tripinfo_5" vType="DEFAULT_VEHTYPE" speedFactor="0.83" vaporized=""/>
    <tripinfo id="10" depart="44.00" departLane="gneE7_0" departPos="5.10" departSpeed="0.00" departDelay="0.80" arrival="63.00" arrivalLane="gneE9_0" arrivalPos="87.20" arrivalSpeed="14.13" duration="19.00" routeLength="171.88" waitingTime="0.00" waitingCount="0" stopTime="0.00" timeLoss="7.31" rerouteNo="0" devices="tripinfo_10" vType="DEFAULT_VEHTYPE" speedFactor="1.09" vaporized=""/>
    <tripinfo id="12" depart="52.00" departLane="gneE8_0" departPos="5.10" departSpeed="0.00" departDelay="0.16" arrival="74.00" arrivalLane="e11_1" arrivalPos="90.00" arrivalSpeed="7.79" duration="22.00" routeLength="190.16" waitingTime="0.00" waitingCount="0" stopTime="0.00" timeLoss="12.35" rerouteNo="0" devices="tripinfo_12" vType="DEFAULT_VEHTYPE" speedFactor="1.05" vaporized=""/>
    <tripinfo id="2" depart="9.00" departLane="e14_0" departPos="5.10" departSpeed="0.00" departDelay="0.36" arrival="81.00" arrivalLane="e3_0" arrivalPos="90.00" arrivalSpeed="18.70" duration="72.00" routeLength="467.84" waitingTime="19.00" waitingCount="1" stopTime="0.00" timeLoss="51.10" rerouteNo="0" devices="tripinfo_2" vType="DEFAULT_VEHTYPE" speedFactor="1.01" vaporized=""/>
    <tripinfo id="16" depart="70.00" departLane="e12_0" departPos="5.10" departSpeed="0.00" departDelay="0.89" arrival="105.00" arrivalLane="e9_0" arrivalPos="90.00" arrivalSpeed="26.46" duration="35.00" routeLength="378.06" waitingTime="0.00" waitingCount="0" stopTime="0.00" timeLoss="18.55" rerouteNo="0" devices="tripinfo_16" vType="DEFAULT_VEHTYPE" speedFactor="0.88" vaporized=""/>
    <tripinfo id="24" depart="104.00" departLane="e7_0" departPos="5.10" departSpeed="0.00" departDelay="0.33" arrival="123.00" arrivalLane="gneE2_0" arrivalPos="90.00" arrivalSpeed="19.62" duration="19.00" routeLength="183.93" waitingTime="0.00" waitingCount="0" stopTime="0.00" timeLoss="11.58" rerouteNo="0" devices="tripinfo_24" vType="DEFAULT_VEHTYPE" speedFactor="0.83" vaporized=""/>
    <tripinfo id="20" depart="87.00" departLane="e7_0" departPos="5.10" departSpeed="0.00" departDelay="0.61" arrival="125.00" arrivalLane="gneE6_1" arrivalPos="87.20" arrivalSpeed="13.64" duration="38.00" routeLength="373.81" waitingTime="0.00" waitingCount="0" stopTime="0.00" timeLoss="16.64" rerouteNo="0" devices="tripinfo_20" vType="DEFAULT_VEHTYPE" speedFactor="1.02" vaporized=""/>
    <tripinfo id="32" depart="139.00" departLane="e13_0" departPos="5.10" departSpeed="0.00" departDelay="0.77" arrival="180.00" arrivalLane="e3_1" arrivalPos="90.00" arrivalSpeed="7.72" duration="41.00" routeLength="357.04" waitingTime="0.00" waitingCount="0" stopTime="0.00" timeLoss="23.63" rerouteNo="0" devices="tripinfo_32" vType="DEFAULT_VEHTYPE" speedFactor="1.01" vaporized=""/>
    <tripinfo id="38" depart="165.00" departLane="gneE11_0" departPos="5.10" departSpeed="0.00" departDelay="0.86" arrival="183.00" arrivalLane="e14_0" arrivalPos="90.00" arrivalSpeed="16.56" duration="18.00" routeLength="190.16" waitingTime="0.00" waitingCount="0" stopTime="0.00" timeLoss="8.57" rerouteNo="0" devices="tripinfo_38" vType="DEFAULT_VEHTYPE" speedFactor="1.10" vaporized=""/>
    <tripinfo id="37" depart="160.00" departLane="gneE6_0" departPos="5.10" departSpeed="0.00" departDelay="0.18" arrival="187.00" arrivalLane="gneE2_0" arrivalPos="90.00" arrivalSpeed="18.56" duration="27.00" routeLength="273.71" waitingTime="0.00" waitingCount="0" stopTime="0.00" timeLoss="17.02" rerouteNo="0" devices="tripinfo_37" vType="DEFAULT_VEHTYPE" speedFactor="1.18" vaporized=""/>
    <tripinfo id="35" depart="152.00" departLane="e12_0" departPos="5.10" departSpeed="0.00" departDelay="0.81" arrival="198.00" arrivalLane="gneE3_0" arrivalPos="87.20" arrivalSpeed="13.80" duration="46.00" routeLength="483.32" waitingTime="0.00" waitingCount="0" stopTime="0.00" timeLoss="22.94" rerouteNo="0" devices="tripinfo_35" vType="DEFAULT_VEHTYPE" speedFactor="1.02" vaporized=""/>
    <tripinfo id="44" depart="191.00" departLane="gneE11_0" departPos="5.10" departSpeed="0.00" departDelay="0.94" arrival="200.00" arrivalLane="gneE11_0" arrivalPos="87.20" arrivalSpeed="14.46" duration="9.00" routeLength="82.10" waitingTime="0.00" waitingCount="0" stopTime="0.00" timeLoss="3.00" rerouteNo="0" devices="tripinfo_44" vType="DEFAULT_VEHTYPE" speedFactor="1.04" vaporized=""/>
    <tripinfo id="18" depart="78.00" departLane="e2_0" departPos="5.10" departSpeed="0.00" departDelay="0.25" arrival="248.00" arrivalLane="gneE2_0" arrivalPos="90.00" arrivalSpeed="9.97" duration="170.00" routeLength="195.70" waitingTime="146.00" waitingCount="1" stopTime="0.00" timeLoss="164.52" rerouteNo="0" devices="tripinfo_18" vType="DEFAULT_VEHTYPE" speedFactor="0.94" vaporized=""/>
    <tripinfo id="0" depart="0.00" departLane="gneE10_0" departPos="5.10" departSpeed="0.00" departDelay="0.00" arrival="253.00" arrivalLane="gneE4_0" arrivalPos="87.20" arrivalSpeed="13.70" duration="253.00" routeLength="595.03" waitingTime="190.00" waitingCount="2" stopTime="0.00" timeLoss="223.90" rerouteNo="0" devices="tripinfo_0" vType="DEFAULT_VEHTYPE" speedFactor="1.06" vaporized=""/>
    <tripinfo id="73" depart="316.00" departLane="gneE7_0" departPos="5.10" departSpeed="0.00" departDelay="0.67" arrival="326.00" arrivalLane="gneE7_0" arrivalPos="87.20" arrivalSpeed="13.37" duration="10.00" routeLength="82.10" waitingTime="0.00" waitingCount="0" stopTime="0.00" timeLoss="3.95" rerouteNo="0" devices="tripinfo_73" vType="DEFAULT_VEHTYPE" speedFactor="1.06" vaporized=""/>
    <tripinfo id="75" depart="324.00" departLane="e8_0" departPos="5.10" departSpeed="0.00" departDelay="0.03" arrival="333.00" arrivalLane="e8_0" arrivalPos="90.00" arrivalSpeed="18.29" duration="9.00" routeLength="84.90" waitingTime="0.00" waitingCount="0" stopTime="0.00" timeLoss="6.66" rerouteNo="0" devices="tripinfo_75" vType="DEFAULT_VEHTYPE" speedFactor="0.98" vaporized=""/>
    <tripinfo id="1" depart="5.00" departLane="gneE12_0" departPos="5.10" departSpeed="0.00" departDelay="0.68" arrival="353.00" arrivalLane="gneE10_0" arrivalPos="87.20" arrivalSpeed="12.51" duration="348.00" routeLength="468.97" waitingTime="301.00" waitingCount="1" stopTime="0.00" timeLoss="322.51" rerouteNo="0" devices="tripinfo_1" vType="DEFAULT_VEHTYPE" speedFactor="0.94" vaporized=""/>
    <tripinfo id="41" depart="178.00" departLane="e11_0" departPos="5.10" departSpeed="0.00" departDelay="0.90" arrival="353.00" arrivalLane="e11_1" arrivalPos="90.00" arrivalSpeed="6.78" duration="175.00" routeLength="84.90" waitingTime="157.00" waitingCount="1" stopTime="0.00" timeLoss="172.72" rerouteNo="0" devices="tripinfo_41" vType="DEFAULT_VEHTYPE" speedFactor="0.96" vaporized=""/>
    <tripinfo id="80" depart="346.00" departLane="gneE6_0" departPos="5.10" departSpeed="0.00" departDelay="0.43" arrival="355.00" arrivalLane="gneE6_0" arrivalPos="87.20" arrivalSpeed="13.58" duration="9.00" routeLength="82.10" waitingTime="0.00" waitingCount="0" stopTime="0.00" timeLoss="3.07" rerouteNo="0" devices="tripinfo_80" vType="DEFAULT_VEHTYPE" speedFactor="1.03" vaporized=""/>
    <tripinfo id="8" depart="35.00" departLane="gneE12_0" departPos="5.10" departSpeed="0.00" departDelay="0.44" arrival="361.00" arrivalLane="gneE2_0" arrivalPos="90.00" arrivalSpeed="36.52" duration="326.00" routeLength="269.84" waitingTime="301.00" waitingCount="1" stopTime="0.00" timeLoss="313.59" rerouteNo="0" devices="tripinfo_8" vType="DEFAULT_VEHTYPE" speedFactor="0.94" vaporized=""/>
    <tripinfo id="25" depart="108.00" departLane="e8_0" departPos="5.10" departSpeed="0.00" departDelay="0.01" arrival="368.00" arrivalLane="e2_0" arrivalPos="90.00" arrivalSpeed="8.26" duration="260.00" routeLength="397.26" waitingTime="209.00" waitingCount="2" stopTime="0.00" timeLoss="239.30" rerouteNo="0" devices="tripinfo_25" vType="DEFAULT_VEHTYPE" speedFactor="0.87" vaporized=""/>
    <tripinfo id="34" depart="147.00" departLane="gneE10_0" departPos="5.10" departSpeed="0.00" departDelay="0.13" arrival="370.00" arrivalLane="gneE12_1" arrivalPos="87.20" arrivalSpeed="13.30" duration="223.00" routeLength="501.16" waitingTime="171.00" waitingCount="1" stopTime="0.00" timeLoss="192.53" rerouteNo="0" devices="tripinfo_34" vType="DEFAULT_VEHTYPE" speedFactor="0.99" vaporized=""/>
    <tripinfo id="21" depart="91.00" departLane="gneE8_0" departPos="5.10" departSpeed="0.00" departDelay="0.29" arrival="378.00" arrivalLane="gneE3_0" arrivalPos="87.20" arrivalSpeed="13.59" duration="287.00" routeLength="493.48" waitingTime="236.00" waitingCount="1" stopTime="0.00" timeLoss="262.10" rerouteNo="0" devices="tripinfo_21" vType="DEFAULT_VEHTYPE" speedFactor="1.01" vaporized=""/>
    <tripinfo id="11" depart="48.00" departLane="gneE8_0" departPos="5.10" departSpeed="0.00" departDelay="0.48" arrival="392.00" arrivalLane="gneE1_0" arrivalPos="90.00" arrivalSpeed="19.96" duration="344.00" routeLength="706.80" waitingTime="274.00" waitingCount="2" stopTime="0.00" timeLoss="307.75" rerouteNo="0" devices="tripinfo_11" vType="DEFAULT_VEHTYPE" speedFactor="1.03" vaporized=""/>
    <tripinfo id="82" depart="355.00" departLane="e2_0" departPos="5.10" departSpeed="0.00" departDelay="0.79" arrival="400.00" arrivalLane="gneE1_1" arrivalPos="90.00" arrivalSpeed="20.55" duration="45.00" routeLength="487.03" waitingTime="0.00" waitingCount="0" stopTime="0.00" timeLoss="20.91" rerouteNo="0" devices="tripinfo_82" vType="DEFAULT_VEHTYPE" speedFactor="1.02" vaporized=""/>
    <tripinfo id="90" depart="389.00" departLane="e6_0" departPos="5.10" departSpeed="0.00" departDelay="0.24" arrival="418.00" arrivalLane="gneE8_0" arrivalPos="87.20" arrivalSpeed="13.11" duration="29.00" routeLength="295.42" waitingTime="0.00" waitingCount="0" stopTime="0.00" timeLoss="10.06" rerouteNo="0" devices="tripinfo_90" vType="DEFAULT_VEHTYPE" speedFactor="1.02" vaporized=""/>
    <tripinfo id="30" depart="130.00" departLane="e6_0" departPos="5.10" departSpeed="0.00" departDelay="0.41" arrival="425.00" arrivalLane="e2_0" arrivalPos="90.00" arrivalSpeed="15.22" duration="295.00" routeLength="502.51" waitingTime="244.00" waitingCount="2" stopTime="0.00" timeLoss="272.94" rerouteNo="0" devices="tripinfo_30" vType="DEFAULT_VEHTYPE" speedFactor="1.18" vaporized=""/>
    <tripinfo id="40" depart="173.00" departLane="e6_0" departPos="5.10" departSpeed="0.00" departDelay="0.22" arrival="427.00" arrivalLane="e2_0" arrivalPos="90.00" arrivalSpeed="17.80" duration="254.00" routeLength="502.51" waitingTime="197.00" waitingCount="2" stopTime="0.00" timeLoss="228.37" rerouteNo="0" devices="tripinfo_40" vType="DEFAULT_VEHTYPE" speedFactor="1.03" vaporized=""/>
    <tripinfo id="66" depart="286.00" departLane="gneE10_0" departPos="5.10" departSpeed="0.00" departDelay="0.91" arrival="427.00" arrivalLane="e12_1" arrivalPos="90.00" arrivalSpeed="21.42" duration="141.00" routeLength="406.22" waitingTime="89.00" waitingCount="2" stopTime="0.00" timeLoss="117.35" rerouteNo="0" devices="tripinfo_66" vType="DEFAULT_VEHTYPE" speedFactor="0.91" vaporized=""/>
    <tripinfo id="98" depart="424.00" departLane="e2_0" departPos="5.10" departSpeed="0.00" departDelay="0.68" arrival="433.00" arrivalLane="e2_0" arrivalPos="90.00" arrivalSpeed="17.42" duration="9.00" routeLength="84.90" waitingTime="0.00" waitingCount="0" stopTime="0.00" timeLoss="7.07" rerouteNo="0" devices="tripinfo_98" vType="DEFAULT_VEHTYPE" speedFactor="1.12" vaporized=""/>
    <tripinfo id="27" depart="117.00" departLane="e8_0" departPos="5.10" departSpeed="0.00" departDelay="0.37" arrival="438.00" arrivalLane="e2_0" arrivalPos="90.00" arrivalSpeed="11.32" duration="321.00" routeLength="397.26" waitingTime="264.00" waitingCount="3" stopTime="0.00" timeLoss="300.94" rerouteNo="0" devices="tripinfo_27" vType="DEFAULT_VEHTYPE" speedFactor="0.95" vaporized=""/>
    <tripinfo id="100" depart="433.00" departLane="e9_0" departPos="5.10" departSpeed="0.00" departDelay="1.04" arrival="452.00" arrivalLane="gneE3_0" arrivalPos="87.20" arrivalSpeed="14.53" duration="19.00" routeLength="190.16" waitingTime="0.00" waitingCount="0" stopTime="0.00" timeLoss="9.04" rerouteNo="0" devices="tripinfo_100" vType="DEFAULT_VEHTYPE" speedFactor="1.07" vaporized=""/>
    <tripinfo id="109" depart="471.00" departLane="gneE8_0" departPos="5.10" departSpeed="0.00" departDelay="0.16" arrival="481.00" arrivalLane="gneE8_0" arrivalPos="87.20" arrivalSpeed="12.50" duration="10.00" routeLength="82.10" waitingTime="0.00" waitingCount="0" stopTime="0.00" timeLoss="3.40" rerouteNo="0" devices="tripinfo_109" vType="DEFAULT_VEHTYPE" speedFactor="0.96" vaporized=""/>
    <tripinfo id="101" depart="437.00" departLane="gneE3_0" departPos="5.10" departSpeed="0.00" departDelay="0.72" arrival="495.00" arrivalLane="e14_0" arrivalPos="90.00" arrivalSpeed="15.35" duration="58.00" routeLength="607.77" waitingTime="0.00" waitingCount="0" stopTime="0.00" timeLoss="22.43" rerouteNo="0" devices="tripinfo_101" vType="DEFAULT_VEHTYPE" speedFactor="0.96" vaporized=""/>
    <tripinfo id="107" depart="463.00" departLane="gneE1_0" departPos="5.10" departSpeed="0.00" departDelay="0.80" arrival="500.00" arrivalLane="e14_0" arrivalPos="90.00" arrivalSpeed="13.44" duration="37.00" routeLength="397.25" waitingTime="0.00" waitingCount="0" stopTime="0.00" timeLoss="19.67" rerouteNo="0" devices="tripinfo_107" vType="DEFAULT_VEHTYPE" speedFactor="1.03" vaporized=""/>
    <tripinfo id="50" depart="216.00" departLane="e2_0" departPos="5.10" departSpeed="0.00" departDelay="0.02" arrival="505.00" arrivalLane="e8_1" arrivalPos="90.00" arrivalSpeed="20.45" duration="289.00" routeLength="194.25" waitingTime="259.00" waitingCount="2" stopTime="0.00" timeLoss="281.57" rerouteNo="0" devices="tripinfo_50" vType="DEFAULT_VEHTYPE" speedFactor="0.85" vaporized=""/>
    <tripinfo id="52" depart="225.00" departLane="e7_0" departPos="5.10" departSpeed="0.00" departDelay="0.38" arrival="525.00" arrivalLane="gneE2_0" arrivalPos="90.00" arrivalSpeed="18.23" duration="300.00" routeLength="183.93" waitingTime="278.00" waitingCount="1" stopTime="0.00" timeLoss="294.43" rerouteNo="0" devices="tripinfo_52" vType="DEFAULT_VEHTYPE" speedFactor="1.02" vaporized=""/>
    <tripinfo id="53" depart="229.00" departLane="gneE6_0" departPos="5.10" departSpeed="0.00" departDelay="0.06" arrival="527.00" arrivalLane="e8_0" arrivalPos="90.00" arrivalSpeed="22.43" duration="298.00" routeLength="285.48" waitingTime="267.00" waitingCount="1" stopTime="0.00" timeLoss="287.68" rerouteNo="0" devices="tripinfo_53" vType="DEFAULT_VEHTYPE" speedFactor="1.10" vaporized=""/>
    <tripinfo id="111" depart="480.00" departLane="e12_0" departPos="5.10" departSpeed="0.00" departDelay="0.53" arrival="531.00" arrivalLane="e10_0" arrivalPos="90.00" arrivalSpeed="10.63" duration="51.00" routeLength="267.26" waitingTime="11.00" waitingCount="1" stopTime="0.00" timeLoss="36.88" rerouteNo="0" devices="tripinfo_111" vType="DEFAULT_VEHTYPE" speedFactor="0.87" vaporized=""/>
    <tripinfo id="28" depart="121.00" departLane="gneE3_0" departPos="5.10" departSpeed="0.00" departDelay="0.05" arrival="551.00" arrivalLane="e5_1" arrivalPos="90.00" arrivalSpeed="5.67" duration="430.00" routeLength="406.22" waitingTime="380.00" waitingCount="3" stopTime="0.00" timeLoss="411.22" rerouteNo="0" devices="tripinfo_28" vType="DEFAULT_VEHTYPE" speedFactor="1.13" vaporized=""/>
    <tripinfo id="3" depart="20.00" departLane="e10_0" departPos="5.10" departSpeed="0.00" departDelay="7.04" arrival="554.00" arrivalLane="e3_0" arrivalPos="90.00" arrivalSpeed="7.41" duration="534.00" routeLength="546.07" waitingTime="466.00" waitingCount="3" stopTime="0.00" timeLoss="512.20" rerouteNo="0" devices="tripinfo_3" vType="DEFAULT_VEHTYPE" speedFactor="1.08" vaporized=""/>
    <tripinfo id="7" depart="33.00" departLane="e5_0" departPos="5.10" departSpeed="0.00" departDelay="2.76" arrival="558.00" arrivalLane="e6_0" arrivalPos="90.00" arrivalSpeed="18.48" duration="525.00" routeLength="195.70" waitingTime="498.00" waitingCount="2" stopTime="0.00" timeLoss="519.15" rerouteNo="0" devices="tripinfo_7" vType="DEFAULT_VEHTYPE" speedFactor="0.89" vaporized=""/>
    <tripinfo id="81" depart="350.00" departLane="gneE9_0" departPos="5.10" departSpeed="0.00" departDelay="0.11" arrival="560.00" arrivalLane="e13_0" arrivalPos="90.00" arrivalSpeed="19.05" duration="210.00" routeLength="273.71" waitingTime="171.00" waitingCount="2" stopTime="0.00" timeLoss="196.91" rerouteNo="0" devices="tripinfo_81" vType="DEFAULT_VEHTYPE" speedFactor="1.00" vaporized=""/>
    <tripinfo id="60" depart="260.00" departLane="e12_0" departPos="5.10" departSpeed="0.00" departDelay="0.82" arrival="562.00" arrivalLane="e5_0" arrivalPos="90.00" arrivalSpeed="10.07" duration="302.00" routeLength="366.29" waitingTime="251.00" waitingCount="2" stopTime="0.00" timeLoss="288.63" rerouteNo="0" devices="tripinfo_60" vType="DEFAULT_VEHTYPE" speedFactor="1.08" vaporized=""/>
    <tripinfo id="61" depart="264.00" departLane="gneE5_0" departPos="5.10" departSpeed="0.00" departDelay="0.51" arrival="565.00" arrivalLane="e12_0" arrivalPos="90.00" arrivalSpeed="13.90" duration="301.00" routeLength="399.99" waitingTime="255.00" waitingCount="2" stopTime="0.00" timeLoss="286.69" rerouteNo="0" devices="tripinfo_61" vType="DEFAULT_VEHTYPE" speedFactor="1.12" vaporized=""/>
    <tripinfo id="56" depart="242.00" departLane="gneE10_0" departPos="5.10" departSpeed="0.00" departDelay="0.10" arrival="566.00" arrivalLane="e5_0" arrivalPos="90.00" arrivalSpeed="9.99" duration="324.00" routeLength="687.61" waitingTime="222.00" waitingCount="5" stopTime="0.00" timeLoss="285.83" rerouteNo="0" devices="tripinfo_56" vType="DEFAULT_VEHTYPE" speedFactor="0.90" vaporized=""/>
    <tripinfo id="86" depart="372.00" departLane="gneE1_0" departPos="5.10" departSpeed="0.00" departDelay="0.52" arrival="568.00" arrivalLane="e5_1" arrivalPos="90.00" arrivalSpeed="5.98" duration="196.00" routeLength="195.70" waitingTime="164.00" waitingCount="2" stopTime="0.00" timeLoss="191.05" rerouteNo="0" devices="tripinfo_86" vType="DEFAULT_VEHTYPE" speedFactor="1.00" vaporized=""/>
    <tripinfo id="85" depart="371.00" departLane="e3_0" departPos="5.10" departSpeed="0.00" departDelay="3.84" arrival="576.00" arrivalLane="gneE7_0" arrivalPos="87.20" arrivalSpeed="12.63" duration="205.00" routeLength="273.71" waitingTime="162.00" waitingCount="2" stopTime="0.00" timeLoss="191.63" rerouteNo="0" devices="tripinfo_85" vType="DEFAULT_VEHTYPE" speedFactor="0.98" vaporized=""/>
    <tripinfo id="4" depart="18.00" departLane="gneE2_0" departPos="5.10" departSpeed="0.00" departDelay="0.72" arrival="577.00" arrivalLane="e13_1" arrivalPos="90.00" arrivalSpeed="8.13" duration="559.00" routeLength="571.88" waitingTime="489.00" waitingCount="3" stopTime="0.00" timeLoss="532.55" rerouteNo="0" devices="tripinfo_4" vType="DEFAULT_VEHTYPE" speedFactor="1.03" vaporized=""/>
    <tripinfo id="79" depart="342.00" departLane="gneE12_0" departPos="5.10" departSpeed="0.00" departDelay="0.75" arrival="577.00" arrivalLane="e6_0" arrivalPos="90.00" arrivalSpeed="20.24" duration="235.00" routeLength="384.51" waitingTime="181.00" waitingCount="3" stopTime="0.00" timeLoss="221.51" rerouteNo="0" devices="tripinfo_79" vType="DEFAULT_VEHTYPE" speedFactor="1.09" vaporized=""/>
    <tripinfo id="129" depart="558.00" departLane="gneE3_0" departPos="5.10" departSpeed="0.00" departDelay="0.77" arrival="577.00" arrivalLane="gneE5_0" arrivalPos="87.20" arrivalSpeed="13.39" duration="19.00" routeLength="187.36" waitingTime="0.00" waitingCount="0" stopTime="0.00" timeLoss="4.34" rerouteNo="0" devices="tripinfo_129" vType="DEFAULT_VEHTYPE" speedFactor="1.01" vaporized=""/>
    <tripinfo id="102" depart="441.00" departLane="e9_0" departPos="5.10" departSpeed="0.00" departDelay="0.40" arrival="578.00" arrivalLane="e6_1" arrivalPos="90.00" arrivalSpeed="20.74" duration="137.00" routeLength="609.60" waitingTime="69.00" waitingCount="2" stopTime="0.00" timeLoss="109.01" rerouteNo="0" devices="tripinfo_102" vType="DEFAULT_VEHTYPE" speedFactor="0.97" vaporized=""/>
    <tripinfo id="131" depart="566.00" departLane="e10_0" departPos="5.10" departSpeed="0.00" departDelay="0.13" arrival="584.00" arrivalLane="e5_0" arrivalPos="90.00" arrivalSpeed="19.64" duration="18.00" routeLength="183.93" waitingTime="0.00" waitingCount="0" stopTime="0.00" timeLoss="12.73" rerouteNo="0" devices="tripinfo_131" vType="DEFAULT_VEHTYPE" speedFactor="1.07" vaporized=""/>
    <tripinfo id="130" depart="562.00" departLane="e6_0" departPos="5.10" departSpeed="0.00" departDelay="0.45" arrival="591.00" arrivalLane="gneE8_0" arrivalPos="87.20" arrivalSpeed="13.86" duration="29.00" routeLength="295.42" waitingTime="0.00" waitingCount="0" stopTime="0.00" timeLoss="9.77" rerouteNo="0" devices="tripinfo_130" vType="DEFAULT_VEHTYPE" speedFactor="1.03" vaporized=""/>
    <tripinfo id="71" depart="307.00" departLane="gneE11_0" departPos="5.10" departSpeed="0.00" departDelay="0.31" arrival="594.00" arrivalLane="gneE12_1" arrivalPos="87.20" arrivalSpeed="12.97" duration="287.00" routeLength="792.88" waitingTime="186.00" waitingCount="5" stopTime="0.00" timeLoss="243.19" rerouteNo="0" devices="tripinfo_71" vType="DEFAULT_VEHTYPE" speedFactor="0.97" vaporized=""/>
    <tripinfo id="136" depart="590.00" departLane="e5_0" departPos="5.10" departSpeed="0.00" departDelay="2.54" arrival="599.00" arrivalLane="e5_0" arrivalPos="90.00" arrivalSpeed="18.17" duration="9.00" routeLength="84.90" waitingTime="0.00" waitingCount="0" stopTime="0.00" timeLoss="6.94" rerouteNo="0" devices="tripinfo_136" vType="DEFAULT_VEHTYPE" speedFactor="1.12" vaporized=""/>
    <tripinfo id="97" depart="419.00" departLane="gneE7_0" departPos="5.10" departSpeed="0.00" departDelay="0.00" arrival="600.00" arrivalLane="gneE12_1" arrivalPos="87.20" arrivalSpeed="11.89" duration="181.00" routeLength="479.08" waitingTime="106.00" waitingCount="4" stopTime="0.00" timeLoss="149.22" rerouteNo="0" devices="tripinfo_97" vType="DEFAULT_VEHTYPE" speedFactor="0.91" vaporized=""/>
    <tripinfo id="6" depart="26.00" departLane="gneE10_0" departPos="5.10" departSpeed="0.00" departDelay="0.08" arrival="602.00" arrivalLane="gneE9_1" arrivalPos="87.20" arrivalSpeed="13.93" duration="576.00" routeLength="986.85" waitingTime="454.00" waitingCount="4" stopTime="0.00" timeLoss="523.56" rerouteNo="0" devices="tripinfo_6" vType="DEFAULT_VEHTYPE" speedFactor="1.05" vaporized=""/>
    <tripinfo id="74" depart="321.00" departLane="e14_0" departPos="5.10" departSpeed="0.00" departDelay="1.35" arrival="603.00" arrivalLane="gneE12_1" arrivalPos="87.20" arrivalSpeed="12.21" duration="282.00" routeLength="687.62" waitingTime="175.00" waitingCount="6" stopTime="0.00" timeLoss="244.78" rerouteNo="0" devices="tripinfo_74" vType="DEFAULT_VEHTYPE" speedFactor="0.96" vaporized=""/>
    <tripinfo id="78" depart="337.00" departLane="gneE9_0" departPos="5.10" departSpeed="0.00" departDelay="0.07" arrival="608.00" arrivalLane="e6_0" arrivalPos="90.00" arrivalSpeed="28.42" duration="271.00" routeLength="686.55" waitingTime="194.00" waitingCount="3" stopTime="0.00" timeLoss="241.39" rerouteNo="0" devices="tripinfo_78" vType="DEFAULT_VEHTYPE" speedFactor="1.01" vaporized=""/>
    <tripinfo id="88" depart="381.00" departLane="e10_0" departPos="5.10" departSpeed="0.00" departDelay="0.88" arrival="616.00" arrivalLane="e3_0" arrivalPos="90.00" arrivalSpeed="19.18" duration="235.00" routeLength="565.43" waitingTime="152.00" waitingCount="3" stopTime="0.00" timeLoss="208.21" rerouteNo="0" devices="tripinfo_88" vType="DEFAULT_VEHTYPE" speedFactor="1.01" vaporized=""/>
    <tripinfo id="95" depart="411.00" departLane="gneE9_0" departPos="5.10" departSpeed="0.00" departDelay="0.64" arrival="619.00" arrivalLane="e6_0" arrivalPos="90.00" arrivalSpeed="28.59" duration="208.00" routeLength="681.39" waitingTime="126.00" waitingCount="4" stopTime="0.00" timeLoss="180.68" rerouteNo="0" devices="tripinfo_95" vType="DEFAULT_VEHTYPE" speedFactor="1.06" vaporized=""/>
    <tripinfo id="58" depart="251.00" departLane="e2_0" departPos="5.10" departSpeed="0.00" departDelay="0.46" arrival="669.00" arrivalLane="e7_0" arrivalPos="90.00" arrivalSpeed="11.91" duration="418.00" routeLength="467.84" waitingTime="362.00" waitingCount="2" stopTime="0.00" timeLoss="396.70" rerouteNo="0" devices="tripinfo_58" vType="DEFAULT_VEHTYPE" speedFactor="1.02" vaporized=""/>
    <tripinfo id="13" depart="57.00" departLane="e2_0" departPos="5.10" departSpeed="0.00" departDelay="0.85" arrival="671.00" arrivalLane="e7_0" arrivalPos="90.00" arrivalSpeed="10.84" duration="614.00" routeLength="483.32" waitingTime="551.00" waitingCount="3" stopTime="0.00" timeLoss="593.06" rerouteNo="0" devices="tripinfo_13" vType="DEFAULT_VEHTYPE" speedFactor="1.12" vaporized=""/>
    <tripinfo id="17" depart="74.00" departLane="gneE7_0" departPos="5.10" departSpeed="0.00" departDelay="0.57" arrival="675.00" arrivalLane="e7_0" arrivalPos="90.00" arrivalSpeed="7.73" duration="601.00" routeLength="737.40" waitingTime="520.00" waitingCount="2" stopTime="0.00" timeLoss="560.95" rerouteNo="0" devices="tripinfo_17" vType="DEFAULT_VEHTYPE" speedFactor="0.94" vaporized=""/>
    <tripinfo id="92" depart="398.00" departLane="gneE6_0" departPos="5.10" departSpeed="0.00" departDelay="0.60" arrival="682.00" arrivalLane="gneE2_0" arrivalPos="90.00" arrivalSpeed="18.31" duration="284.00" routeLength="273.71" waitingTime="247.00" waitingCount="1" stopTime="0.00" timeLoss="268.94" rerouteNo="0" devices="tripinfo_92" vType="DEFAULT_VEHTYPE" speedFactor="0.83" vaporized=""/>
    <tripinfo id="9" depart="39.00" departLane="gneE2_0" departPos="5.10" departSpeed="0.00" departDelay="0.12" arrival="716.00" arrivalLane="gneE3_0" arrivalPos="87.20" arrivalSpeed="11.55" duration="677.00" routeLength="959.97" waitingTime="578.00" waitingCount="2" stopTime="0.00" timeLoss="622.11" rerouteNo="0" devices="tripinfo_9" vType="DEFAULT_VEHTYPE" speedFactor="0.86" vaporized=""/>
    <tripinfo id="62" depart="268.00" departLane="e8_0" departPos="5.10" departSpeed="0.00" departDelay="0.19" arrival="725.00" arrivalLane="e11_1" arrivalPos="90.00" arrivalSpeed="5.89" duration="457.00" routeLength="715.83" waitingTime="377.00" waitingCount="3" stopTime="0.00" timeLoss="418.39" rerouteNo="0" devices="tripinfo_62" vType="DEFAULT_VEHTYPE" speedFactor="1.02" vaporized=""/>
    <tripinfo id="29" depart="126.00" departLane="gneE1_0" departPos="5.10" departSpeed="0.00" departDelay="0.73" arrival="727.00" arrivalLane="e11_1" arrivalPos="90.00" arrivalSpeed="6.90" duration="601.00" routeLength="625.08" waitingTime="525.00" waitingCount="4" stopTime="0.00" timeLoss="571.04" rerouteNo="0" devices="tripinfo_29" vType="DEFAULT_VEHTYPE" speedFactor="0.93" vaporized=""/>
    <tripinfo id="166" depart="718.00" departLane="e5_0" departPos="5.10" departSpeed="0.00" departDelay="0.95" arrival="727.00" arrivalLane="e5_0" arrivalPos="90.00" arrivalSpeed="18.19" duration="9.00" routeLength="84.90" waitingTime="0.00" waitingCount="0" stopTime="0.00" timeLoss="6.62" rerouteNo="0" devices="tripinfo_166" vType="DEFAULT_VEHTYPE" speedFactor="1.00" vaporized=""/>
    <tripinfo id="45" depart="195.00" departLane="e3_0" departPos="5.10" departSpeed="0.00" departDelay="0.62" arrival="730.00" arrivalLane="e11_1" arrivalPos="90.00" arrivalSpeed="10.15" duration="535.00" routeLength="885.67" waitingTime="432.00" waitingCount="3" stopTime="0.00" timeLoss="497.28" rerouteNo="0" devices="tripinfo_45" vType="DEFAULT_VEHTYPE" speedFactor="1.09" vaporized=""/>
    <tripinfo id="176" depart="761.00" departLane="e5_0" departPos="5.10" departSpeed="0.00" departDelay="0.75" arrival="771.00" arrivalLane="e5_0" arrivalPos="90.00" arrivalSpeed="20.31" duration="10.00" routeLength="84.90" waitingTime="0.00" waitingCount="0" stopTime="0.00" timeLoss="7.63" rerouteNo="0" devices="tripinfo_176" vType="DEFAULT_VEHTYPE" speedFactor="1.09" vaporized=""/>
    <tripinfo id="70" depart="303.00" departLane="gneE10_0" departPos="5.10" departSpeed="0.00" departDelay="0.63" arrival="794.00" arrivalLane="e3_1" arrivalPos="90.00" arrivalSpeed="20.66" duration="491.00" routeLength="1063.79" waitingTime="374.00" waitingCount="4" stopTime="0.00" timeLoss="434.76" rerouteNo="0" devices="tripinfo_70" vType="DEFAULT_VEHTYPE" speedFactor="1.02" vaporized=""/>
    <tripinfo id="115" depart="497.00" departLane="gneE3_0" departPos="5.10" departSpeed="0.00" departDelay="0.25" arrival="848.00" arrivalLane="gneE10_0" arrivalPos="87.20" arrivalSpeed="12.19" duration="351.00" routeLength="601.48" waitingTime="301.00" waitingCount="1" stopTime="0.00" timeLoss="316.52" rerouteNo="0" devices="tripinfo_115" vType="DEFAULT_VEHTYPE" speedFactor="0.92" vaporized=""/>