<?xml version="1.0" encoding="UTF-8"?>

<!-- generated on Tue Oct 13 02:27:41 2020 by Eclipse SUMO Version 1.6.0
<configuration xmlns:xsi="http://www.w3.org/2001/XMLSchema-instance" xsi:noNamespaceSchemaLocation="http://sumo.dlr.de/xsd/sumoConfiguration.xsd">

    <input>
        <net-file value="flux/sumo/configs/example/traffic.net.xml"/>
        <route-files value="flux/sumo/configs/example/traffic.rou.xml"/>
        <additional-files value="flux/sumo/configs/example/traffic.det.xml"/>
    </input>

    <output>
        <tripinfo-output value="flux/sumo/configs/example/tripinfo.xml"/>
    </output>

    <time>
        <begin value="0"/>
    </time>

    <report>
        <verbose value="true"/>
        <no-step-log value="true"/>
    </report>

    <traci_server>
        <remote-port value="57219"/>
    </traci_server>

</configuration>
-->

<detector xmlns:xsi="http://www.w3.org/2001/XMLSchema-instance" xsi:noNamespaceSchemaLocation="http://sumo.dlr.de/xsd/det_e1_file.xsd">
</detector>
