<?xml version="1.0" encoding="UTF-8"?>

<!-- generated on Thu Oct 15 22:20:50 2020 by Eclipse SUMO Version 1.6.0
<configuration xmlns:xsi="http://www.w3.org/2001/XMLSchema-instance" xsi:noNamespaceSchemaLocation="http://sumo.dlr.de/xsd/sumoConfiguration.xsd">

    <input>
        <net-file value="configs/example/traffic.net.xml"/>
        <route-files value="configs/example/traffic.rou.xml"/>
        <additional-files value="configs/example/traffic.det.xml"/>
    </input>

    <output>
        <tripinfo-output value="configs/example/tripinfo.xml"/>
    </output>

    <time>
        <begin value="0"/>
    </time>

    <report>
        <verbose value="true"/>
        <no-step-log value="true"/>
    </report>

    <traci_server>
        <remote-port value="65452"/>
    </traci_server>

</configuration>
-->

<tripinfos xmlns:xsi="http://www.w3.org/2001/XMLSchema-instance" xsi:noNamespaceSchemaLocation="http://sumo.dlr.de/xsd/tripinfo_file.xsd">
    <tripinfo id="upleft_0" depart="0.00" departLane="54o_0" departPos="2.80" departSpeed="0.00" departDelay="0.00" arrival="27.00" arrivalLane="51i_0" arrivalPos="10.00" arrivalSpeed="15.46" duration="27.00" routeLength="206.43" waitingTime="0.00" waitingCount="0" stopTime="0.00" timeLoss="18.91" rerouteNo="0" devices="tripinfo_upleft_0" vType="typeNW" speedFactor="1.06" vaporized=""/>
    <tripinfo id="right_7" depart="9.00" departLane="51o_0" departPos="2.95" departSpeed="0.00" departDelay="0.00" arrival="42.00" arrivalLane="52i_0" arrivalPos="10.00" arrivalSpeed="12.25" duration="33.00" routeLength="211.65" waitingTime="0.00" waitingCount="0" stopTime="0.00" timeLoss="24.89" rerouteNo="0" devices="tripinfo_right_7" vType="typeWE" speedFactor="0.89" vaporized=""/>
    <tripinfo id="right_10" depart="12.00" departLane="51o_0" departPos="2.95" departSpeed="0.00" departDelay="2.00" arrival="44.00" arrivalLane="52i_0" arrivalPos="10.00" arrivalSpeed="12.91" duration="32.00" routeLength="211.65" waitingTime="0.00" waitingCount="0" stopTime="0.00" timeLoss="23.86" rerouteNo="0" devices="tripinfo_right_10" vType="typeWE" speedFactor="1.09" vaporized=""/>
    <tripinfo id="right_21" depart="18.00" departLane="51o_0" departPos="2.95" departSpeed="0.00" departDelay="0.00" arrival="45.00" arrivalLane="52i_0" arrivalPos="10.00" arrivalSpeed="13.54" duration="27.00" routeLength="211.65" waitingTime="0.00" waitingCount="0" stopTime="0.00" timeLoss="18.86" rerouteNo="0" devices="tripinfo_right_21" vType="typeWE" speedFactor="1.01" vaporized=""/>
    <tripinfo id="left_2" depart="4.00" departLane="52o_0" departPos="2.95" departSpeed="0.00" departDelay="0.00" arrival="47.00" arrivalLane="51i_0" arrivalPos="10.00" arrivalSpeed="11.49" duration="43.00" routeLength="211.65" waitingTime="4.00" waitingCount="1" stopTime="0.00" timeLoss="35.15" rerouteNo="0" devices="tripinfo_left_2" vType="typeWE" speedFactor="1.01" vaporized=""/>
    <tripinfo id="left_3" depart="8.00" departLane="52o_0" departPos="2.95" departSpeed="0.00" departDelay="3.00" arrival="49.00" arrivalLane="51i_0" arrivalPos="10.00" arrivalSpeed="11.19" duration="41.00" routeLength="211.65" waitingTime="2.00" waitingCount="1" stopTime="0.00" timeLoss="33.19" rerouteNo="0" devices="tripinfo_left_3" vType="typeWE" speedFactor="1.08" vaporized=""/>
    <tripinfo id="right_25" depart="22.00" departLane="51o_0" departPos="2.95" departSpeed="0.00" departDelay="0.00" arrival="49.00" arrivalLane="52i_0" arrivalPos="10.00" arrivalSpeed="15.89" duration="27.00" routeLength="211.65" waitingTime="0.00" waitingCount="0" stopTime="0.00" timeLoss="19.09" rerouteNo="0" devices="tripinfo_right_25" vType="typeWE" speedFactor="0.87" vaporized=""/>
    <tripinfo id="left_18" depart="16.00" departLane="52o_0" departPos="2.95" departSpeed="0.00" departDelay="0.00" arrival="51.00" arrivalLane="51i_0" arrivalPos="10.00" arrivalSpeed="12.19" duration="35.00" routeLength="211.65" waitingTime="0.00" waitingCount="0" stopTime="0.00" timeLoss="26.76" rerouteNo="0" devices="tripinfo_left_18" vType="typeWE" speedFactor="0.94" vaporized=""/>
    <tripinfo id="left_22" depart="19.00" departLane="52o_0" departPos="2.95" departSpeed="0.00" departDelay="1.00" arrival="52.00" arrivalLane="51i_0" arrivalPos="10.00" arrivalSpeed="12.00" duration="33.00" routeLength="211.65" waitingTime="0.00" waitingCount="0" stopTime="0.00" timeLoss="24.88" rerouteNo="0" devices="tripinfo_left_22" vType="typeWE" speedFactor="0.98" vaporized=""/>
    <tripinfo id="left_26" depart="23.00" departLane="52o_0" departPos="2.95" departSpeed="0.00" departDelay="1.00" arrival="53.00" arrivalLane="51i_0" arrivalPos="10.00" arrivalSpeed="11.65" duration="30.00" routeLength="211.65" waitingTime="0.00" waitingCount="0" stopTime="0.00" timeLoss="22.29" rerouteNo="0" devices="tripinfo_left_26" vType="typeWE" speedFactor="0.92" vaporized=""/>
    <tripinfo id="right_28" depart="27.00" departLane="51o_0" departPos="2.95" departSpeed="0.00" departDelay="4.00" arrival="53.00" arrivalLane="52i_0" arrivalPos="10.00" arrivalSpeed="16.19" duration="26.00" routeLength="211.65" waitingTime="0.00" waitingCount="0" stopTime="0.00" timeLoss="17.97" rerouteNo="0" devices="tripinfo_right_28" vType="typeWE" speedFactor="1.13" vaporized=""/>
    <tripinfo id="left_29" depart="27.00" departLane="52o_0" departPos="2.95" departSpeed="0.00" departDelay="4.00" arrival="55.00" arrivalLane="51i_0" arrivalPos="10.00" arrivalSpeed="12.95" duration="28.00" routeLength="211.65" waitingTime="0.00" waitingCount="0" stopTime="0.00" timeLoss="19.76" rerouteNo="0" devices="tripinfo_left_29" vType="typeWE" speedFactor="0.93" vaporized=""/>
    <tripinfo id="southright_1" depart="3.00" departLane="53o_0" departPos="2.80" departSpeed="0.00" departDelay="0.00" arrival="73.00" arrivalLane="52i_0" arrivalPos="10.00" arrivalSpeed="11.33" duration="70.00" routeLength="206.43" waitingTime="33.00" waitingCount="1" stopTime="0.00" timeLoss="62.29" rerouteNo="0" devices="tripinfo_southright_1" vType="typeSE" speedFactor="0.94" vaporized=""/>
    <tripinfo id="upleft_8" depart="9.00" departLane="54o_0" departPos="2.80" departSpeed="0.00" departDelay="0.00" arrival="73.00" arrivalLane="51i_0" arrivalPos="10.00" arrivalSpeed="11.40" duration="64.00" routeLength="206.43" waitingTime="26.00" waitingCount="1" stopTime="0.00" timeLoss="56.22" rerouteNo="0" devices="tripinfo_upleft_8" vType="typeNW" speedFactor="0.94" vaporized=""/>
    <tripinfo id="southright_4" depart="7.00" departLane="53o_0" departPos="2.80" departSpeed="0.00" departDelay="1.00" arrival="75.00" arrivalLane="52i_0" arrivalPos="10.00" arrivalSpeed="11.43" duration="68.00" routeLength="206.43" waitingTime="31.00" waitingCount="1" stopTime="0.00" timeLoss="60.59" rerouteNo="0" devices="tripinfo_southright_4" vType="typeSE" speedFactor="1.03" vaporized=""/>
    <tripinfo id="upleft_11" depart="13.00" departLane="54o_0" departPos="2.80" departSpeed="0.00" departDelay="2.00" arrival="75.00" arrivalLane="51i_0" arrivalPos="10.00" arrivalSpeed="11.59" duration="62.00" routeLength="206.43" waitingTime="24.00" waitingCount="1" stopTime="0.00" timeLoss="54.27" rerouteNo="0" devices="tripinfo_upleft_11" vType="typeNW" speedFactor="1.03" vaporized=""/>
    <tripinfo id="upleft_13" depart="17.00" departLane="54o_0" departPos="2.80" departSpeed="0.00" departDelay="5.00" arrival="77.00" arrivalLane="51i_0" arrivalPos="10.00" arrivalSpeed="11.80" duration="60.00" routeLength="206.43" waitingTime="22.00" waitingCount="1" stopTime="0.00" timeLoss="52.30" rerouteNo="0" devices="tripinfo_upleft_13" vType="typeNW" speedFactor="1.12" vaporized=""/>
    <tripinfo id="up_5" depart="10.00" departLane="53o_0" departPos="2.80" departSpeed="0.00" departDelay="4.00" arrival="78.00" arrivalLane="54i_0" arrivalPos="10.00" arrivalSpeed="12.34" duration="68.00" routeLength="211.80" waitingTime="28.00" waitingCount="1" stopTime="0.00" timeLoss="59.36" rerouteNo="0" devices="tripinfo_up_5" vType="typeSN1" speedFactor="0.83" vaporized=""/>
    <tripinfo id="down_14" depart="20.00" departLane="54o_0" departPos="2.80" departSpeed="0.00" departDelay="8.00" arrival="78.00" arrivalLane="53i_0" arrivalPos="10.00" arrivalSpeed="12.39" duration="58.00" routeLength="211.80" waitingTime="18.00" waitingCount="1" stopTime="0.00" timeLoss="50.03" rerouteNo="0" devices="tripinfo_down_14" vType="typeNS" speedFactor="0.99" vaporized=""/>
    <tripinfo id="southright_6" depart="14.00" departLane="53o_0" departPos="2.80" departSpeed="0.00" departDelay="6.00" arrival="80.00" arrivalLane="52i_0" arrivalPos="10.00" arrivalSpeed="11.73" duration="66.00" routeLength="206.43" waitingTime="26.00" waitingCount="1" stopTime="0.00" timeLoss="58.16" rerouteNo="0" devices="tripinfo_southright_6" vType="typeSE" speedFactor="1.05" vaporized=""/>
    <tripinfo id="down_16" depart="25.00" departLane="54o_0" departPos="2.80" departSpeed="0.00" departDelay="12.00" arrival="81.00" arrivalLane="53i_0" arrivalPos="10.00" arrivalSpeed="12.60" duration="56.00" routeLength="211.80" waitingTime="17.00" waitingCount="1" stopTime="0.00" timeLoss="47.66" rerouteNo="0" devices="tripinfo_down_16" vType="typeNS" speedFactor="0.88" vaporized=""/>
    <tripinfo id="up_9" depart="17.00" departLane="53o_0" departPos="2.80" departSpeed="0.00" departDelay="8.00" arrival="82.00" arrivalLane="54i_0" arrivalPos="10.00" arrivalSpeed="12.62" duration="65.00" routeLength="211.80" waitingTime="24.00" waitingCount="1" stopTime="0.00" timeLoss="56.44" rerouteNo="0" devices="tripinfo_up_9" vType="typeSN1" speedFactor="0.86" vaporized=""/>
    <tripinfo id="down_17" depart="28.00" departLane="54o_0" departPos="2.80" departSpeed="0.00" departDelay="13.00" arrival="82.00" arrivalLane="53i_0" arrivalPos="10.00" arrivalSpeed="12.36" duration="54.00" routeLength="211.80" waitingTime="13.00" waitingCount="1" stopTime="0.00" timeLoss="46.22" rerouteNo="0" devices="tripinfo_down_17" vType="typeNS" speedFactor="0.94" vaporized=""/>
    <tripinfo id="southright_12" depart="21.00" departLane="53o_0" departPos="2.80" departSpeed="0.00" departDelay="9.00" arrival="83.00" arrivalLane="52i_0" arrivalPos="10.00" arrivalSpeed="12.04" duration="62.00" routeLength="206.43" waitingTime="23.00" waitingCount="2" stopTime="0.00" timeLoss="54.30" rerouteNo="0" devices="tripinfo_southright_12" vType="typeSE" speedFactor="1.05" vaporized=""/>
    <tripinfo id="down_19" depart="32.00" departLane="54o_0" departPos="2.80" departSpeed="0.00" departDelay="16.00" arrival="84.00" arrivalLane="53i_0" arrivalPos="10.00" arrivalSpeed="12.48" duration="52.00" routeLength="211.80" waitingTime="12.00" waitingCount="1" stopTime="0.00" timeLoss="44.27" rerouteNo="0" devices="tripinfo_down_19" vType="typeNS" speedFactor="1.16" vaporized=""/>
    <tripinfo id="up_15" depart="25.00" departLane="53o_0" departPos="2.80" departSpeed="0.00" departDelay="13.00" arrival="85.00" arrivalLane="54i_0" arrivalPos="10.00" arrivalSpeed="12.76" duration="60.00" routeLength="211.80" waitingTime="20.00" waitingCount="2" stopTime="0.00" timeLoss="51.89" rerouteNo="0" devices="tripinfo_up_15" vType="typeSN1" speedFactor="0.93" vaporized=""/>
    <tripinfo id="upleft_20" depart="36.00" departLane="54o_0" departPos="2.80" departSpeed="0.00" departDelay="19.00" arrival="85.00" arrivalLane="51i_0" arrivalPos="10.00" arrivalSpeed="12.02" duration="49.00" routeLength="206.43" waitingTime="11.00" waitingCount="1" stopTime="0.00" timeLoss="41.55" rerouteNo="0" devices="tripinfo_upleft_20" vType="typeNW" speedFactor="1.02" vaporized=""/>
    <tripinfo id="southright_24" depart="30.00" departLane="53o_0" departPos="2.80" departSpeed="0.00" departDelay="9.00" arrival="86.00" arrivalLane="52i_0" arrivalPos="10.00" arrivalSpeed="12.99" duration="56.00" routeLength="206.43" waitingTime="18.00" waitingCount="1" stopTime="0.00" timeLoss="47.55" rerouteNo="0" devices="tripinfo_southright_24" vType="typeSE" speedFactor="0.83" vaporized=""/>
    <tripinfo id="upleft_23" depart="40.00" departLane="54o_0" departPos="2.80" departSpeed="0.00" departDelay="20.00" arrival="87.00" arrivalLane="51i_0" arrivalPos="10.00" arrivalSpeed="12.26" duration="47.00" routeLength="206.43" waitingTime="7.00" waitingCount="1" stopTime="0.00" timeLoss="38.96" rerouteNo="0" devices="tripinfo_upleft_23" vType="typeNW" speedFactor="0.89" vaporized=""/>
    <tripinfo id="left_31" depart="31.00" departLane="52o_0" departPos="2.95" departSpeed="0.00" departDelay="6.00" arrival="102.00" arrivalLane="51i_0" arrivalPos="10.00" arrivalSpeed="11.80" duration="71.00" routeLength="211.65" waitingTime="34.00" waitingCount="1" stopTime="0.00" timeLoss="63.26" rerouteNo="0" devices="tripinfo_left_31" vType="typeWE" speedFactor="1.15" vaporized=""/>
    <tripinfo id="right_33" depart="31.00" departLane="51o_0" departPos="2.95" departSpeed="0.00" departDelay="4.00" arrival="103.00" arrivalLane="52i_0" arrivalPos="10.00" arrivalSpeed="12.28" duration="72.00" routeLength="211.65" waitingTime="33.00" waitingCount="1" stopTime="0.00" timeLoss="64.03" rerouteNo="0" devices="tripinfo_right_33" vType="typeWE" speedFactor="1.17" vaporized=""/>
    <tripinfo id="southright_30" depart="33.00" departLane="53o_0" departPos="2.80" departSpeed="0.00" departDelay="10.00" arrival="130.00" arrivalLane="52i_0" arrivalPos="10.00" arrivalSpeed="11.73" duration="97.00" routeLength="206.43" waitingTime="47.00" waitingCount="2" stopTime="0.00" timeLoss="89.32" rerouteNo="0" devices="tripinfo_southright_30" vType="typeSE" speedFactor="1.18" vaporized=""/>
    <tripinfo id="down_27" depart="44.00" departLane="54o_0" departPos="2.80" departSpeed="0.00" departDelay="22.00" arrival="131.00" arrivalLane="53i_0" arrivalPos="10.00" arrivalSpeed="11.94" duration="87.00" routeLength="211.80" waitingTime="40.00" waitingCount="2" stopTime="0.00" timeLoss="78.73" rerouteNo="0" devices="tripinfo_down_27" vType="typeNS" speedFactor="0.95" vaporized=""/>
    <tripinfo id="southright_32" depart="37.00" departLane="53o_0" departPos="2.80" departSpeed="0.00" departDelay="12.00" arrival="132.00" arrivalLane="52i_0" arrivalPos="10.00" arrivalSpeed="11.34" duration="95.00" routeLength="206.43" waitingTime="46.00" waitingCount="2" stopTime="0.00" timeLoss="87.20" rerouteNo="0" devices="tripinfo_southright_32" vType="typeSE" speedFactor="1.01" vaporized=""/>
    <tripinfo id="upleft_34" depart="47.00" departLane="54o_0" departPos="2.80" departSpeed="0.00" departDelay="20.00" arrival="132.00" arrivalLane="51i_0" arrivalPos="10.00" arrivalSpeed="11.75" duration="85.00" routeLength="206.43" waitingTime="37.00" waitingCount="2" stopTime="0.00" timeLoss="77.17" rerouteNo="0" devices="tripinfo_upleft_34" vType="typeNW" speedFactor="0.99" vaporized=""/>
</tripinfos>
